------------------------------------------------------------
          Invoking FHI-aims ...

          When using FHI-aims, please cite the following reference:

            Volker Blum, Ralf Gehrke, Felix Hanke, Paula Havu,
            Ville Havu, Xinguo Ren, Karsten Reuter, and Matthias Scheffler,
            'Ab Initio Molecular Simulations with Numeric Atom-Centered Orbitals',
            Computer Physics Communications 180, 2175-2196 (2009)

          In addition, many other developments in FHI-aims are likely important for
          your particular application. If so, please cite them. A partial list of references
          is written at the end of this file. Thank you for giving credit to the authors
          of these developments.

          For general information about FHI-aims please find us at

            https://fhi-aims.org

          Online tutorials can be found at

            https://fhi-aims-club.gitlab.io/tutorials/tutorials-overview/

          For any questions about FHI-aims, please visit our slack channel at

            https://fhi-aims.slack.com

          and our main development and support site at

            https://aims-git.rz-berlin.mpg.de .

          The latter site, in particular, has a wiki to collect information, as well
          as an issue tracker to log discussions, suggest improvements, and report issues
          or bugs. https://aims-git.rz-berlin.mpg.de is also the main development site
          of the project and all new and updated code versions can be obtained there.
          Please send an email to aims-coordinators@fhi-berlin.mpg.de and we will add
          you to these sites. They are for you and everyone is welcome there.

------------------------------------------------------------



  Date     :  20251111, Time     :  184110.647
  Time zero on CPU 1             :   0.457513500000000E+01  s.
  Internal wall clock time zero  :           532118470.647  s.

  FHI-aims created a unique identifier for this run for later identification
  aims_uuid : 4BBC4301-743A-4ED5-AE17-EE35CC9AFA21

  Build configuration of the current instance of FHI-aims
  -------------------------------------------------------
  FHI-aims version      : 251023
  Commit number         : 8c0f38015
  CMake host system     : Linux-3.10.0-1160.80.1.el7.x86_64
  CMake version         : 3.24.2
  OS Distribution       : CentOS Linux 7 (Core)
  Built on              : AMD EPYC 7502 32-Core Processor
  Fortran compiler      : /apps/compilers/intel/2018.2/compilers_and_libraries_2018/linux/mpi/intel64/bin/mpif90 (Intel) version 18.0.2.20180210
  Fortran compiler flags: -O3 -ip -fp-model precise
  C compiler            : /apps/compilers/intel/2018.2/compilers_and_libraries_2018/linux/mpi/intel64/bin/mpiicc (Intel) version 18.0.2.20180210
  C compiler flags      : -O3 -ip -fp-model precise -std=gnu99
  C++ compiler          : /apps/compilers/intel/2018.2/compilers_and_libraries_2018/linux/mpi/intel64/bin/mpiicpc (Intel) version 18.0.2.20180210
  C++ compiler flags    : -O3 -ip -fp-model precise
  HIP compiler          :
  HIP compiler flags    :
  HIP GPU arch          :
  ELPA2 kernel          : AVX2
  Using MPI
  Using ScaLAPACK
  Using LibXC
  Using i-PI
  Using RLSY
  Linking against: /apps/compilers/intel/2020.1/compilers_and_libraries_2020/linux/mkl/lib/intel64/libmkl_intel_lp64.so
                   /apps/compilers/intel/2020.1/compilers_and_libraries_2020/linux/mkl/lib/intel64/libmkl_intel_thread.so
                   /apps/compilers/intel/2020.1/compilers_and_libraries_2020/linux/mkl/lib/intel64/libmkl_core.so
                   /apps/compilers/intel/2020.1/compilers_and_libraries_2020/linux/mkl/lib/intel64/libmkl_blacs_intelmpi_lp64.so
                   /apps/compilers/intel/2020.1/compilers_and_libraries_2020/linux/mkl/lib/intel64/libmkl_scalapack_lp64.so
                   /usr/lib64/libpthread.so

  Using       64 parallel tasks.
  Task        0 on host cca9065 reporting.
  Task        1 on host cca9065 reporting.
  Task        2 on host cca9065 reporting.
  Task        3 on host cca9065 reporting.
  Task        4 on host cca9065 reporting.
  Task        5 on host cca9065 reporting.
  Task        6 on host cca9065 reporting.
  Task        7 on host cca9065 reporting.
  Task        8 on host cca9065 reporting.
  Task        9 on host cca9065 reporting.
  Task       10 on host cca9065 reporting.
  Task       11 on host cca9065 reporting.
  Task       12 on host cca9065 reporting.
  Task       13 on host cca9065 reporting.
  Task       14 on host cca9065 reporting.
  Task       15 on host cca9065 reporting.
  Task       16 on host cca9065 reporting.
  Task       17 on host cca9065 reporting.
  Task       18 on host cca9065 reporting.
  Task       19 on host cca9065 reporting.
  Task       20 on host cca9065 reporting.
  Task       21 on host cca9065 reporting.
  Task       22 on host cca9065 reporting.
  Task       23 on host cca9065 reporting.
  Task       24 on host cca9065 reporting.
  Task       25 on host cca9065 reporting.
  Task       26 on host cca9065 reporting.
  Task       27 on host cca9065 reporting.
  Task       28 on host cca9065 reporting.
  Task       29 on host cca9065 reporting.
  Task       30 on host cca9065 reporting.
  Task       31 on host cca9065 reporting.
  Task       32 on host cca9065 reporting.
  Task       33 on host cca9065 reporting.
  Task       34 on host cca9065 reporting.
  Task       35 on host cca9065 reporting.
  Task       36 on host cca9065 reporting.
  Task       37 on host cca9065 reporting.
  Task       38 on host cca9065 reporting.
  Task       39 on host cca9065 reporting.
  Task       40 on host cca9065 reporting.
  Task       41 on host cca9065 reporting.
  Task       42 on host cca9065 reporting.
  Task       43 on host cca9065 reporting.
  Task       44 on host cca9065 reporting.
  Task       45 on host cca9065 reporting.
  Task       46 on host cca9065 reporting.
  Task       47 on host cca9065 reporting.
  Task       48 on host cca9065 reporting.
  Task       49 on host cca9065 reporting.
  Task       50 on host cca9065 reporting.
  Task       51 on host cca9065 reporting.
  Task       52 on host cca9065 reporting.
  Task       53 on host cca9065 reporting.
  Task       54 on host cca9065 reporting.
  Task       55 on host cca9065 reporting.
  Task       56 on host cca9065 reporting.
  Task       57 on host cca9065 reporting.
  Task       58 on host cca9065 reporting.
  Task       59 on host cca9065 reporting.
  Task       60 on host cca9065 reporting.
  Task       61 on host cca9065 reporting.
  Task       62 on host cca9065 reporting.
  Task       63 on host cca9065 reporting.

  Obtaining array dimensions for all initial allocations:
  
  -----------------------------------------------------------------------
  Parsing control.in (first pass over file, find array dimensions only).
  The contents of control.in will be repeated verbatim below
  unless switched off by setting 'verbatim_writeout .false.' .
  in the first line of control.in .
  -----------------------------------------------------------------------
  
  #===============================================================================
  # Created using the Atomic Simulation Environment (ASE)
  
  # Tue Nov 11 18:41:06 2025
  
  #===============================================================================
  xc                                 PBE
  output_level                       full
  relativistic                       atomic_zora scalar
  occupation_type                    gaussian 0.01
  mixer                              pulay
  n_max_pulay                        10
  KS_method                          parallel
  RI_method                          LVL
  density_update_method              density_matrix
  atomic_solver_xc                   PBE
  basis_threshold                    1e-05
  override_illconditioning           .true.
  override_initial_charge_check      .true.
  use_2d_corr                        .true.
  qm_embedding_mo_localise           .false.
  qm_embedding_calc                  1
  charge                             -0.0
  #===============================================================================
  
  ################################################################################
  #
  #  FHI-aims code project
  #  Volker Blum, Fritz Haber Institute Berlin, 2009
  #
  #  Suggested "tight" defaults for C atom (to be pasted into control.in file)
  #
  ################################################################################
    species        C
  #     global species definitions
      nucleus             6
      mass                12.0107
  #
      l_hartree           6
  #
      cut_pot             4.0  2.0  1.0
      basis_dep_cutoff    1e-4
  #
      radial_base         34 7.0
      radial_multiplier   2
      angular_grids specified
        division   0.2187   50
        division   0.4416  110
        division   0.6335  194
        division   0.7727  302
        division   0.8772  434
  #      division   0.9334  590
  #      division   0.9924  770
  #      division   1.0230  974
  #      division   1.5020 1202
  #     outer_grid  974
        outer_grid  434
  ################################################################################
  #
  #  Definition of "minimal" basis
  #
  ################################################################################
  #     valence basis states
      valence      2  s   2.
      valence      2  p   2.
  #     ion occupancy
      ion_occ      2  s   1.
      ion_occ      2  p   1.
  ################################################################################
  #
  #  Suggested additional basis functions. For production calculations,
  #  uncomment them one after another (the most important basis functions are
  #  listed first).
  #
  #  Constructed for dimers: 1.0 A, 1.25 A, 1.5 A, 2.0 A, 3.0 A
  #
  ################################################################################
  #  "First tier" - improvements: -1214.57 meV to -155.61 meV
       hydro 2 p 1.7
       hydro 3 d 6
       hydro 2 s 4.9
  #  "Second tier" - improvements: -67.75 meV to -5.23 meV
       hydro 4 f 9.8
       hydro 3 p 5.2
       hydro 3 s 4.3
       hydro 5 g 14.4
       hydro 3 d 6.2
  #  "Third tier" - improvements: -2.43 meV to -0.60 meV
  #     hydro 2 p 5.6
  #     hydro 2 s 1.4
  #     hydro 3 d 4.9
  #     hydro 4 f 11.2
  #  "Fourth tier" - improvements: -0.39 meV to -0.18 meV
  #     hydro 2 p 2.1
  #     hydro 5 g 16.4
  #     hydro 4 d 13.2
  #     hydro 3 s 13.6
  #     hydro 4 f 17.6
  #  Further basis functions - improvements: -0.08 meV and below
  #     hydro 3 s 2
  #     hydro 3 p 6
  #     hydro 4 d 20
  ################################################################################
  #
  # For methods that use the localized form of the "resolution of identity" for
  # the two-electron Coulomb operator (RI_method LVL), particularly Hartree-Fock and
  # hybrid density functional calculations, the highest accuracy can be obtained by
  # uncommenting the line beginning with "for_aux"  below, thus adding an extra g radial
  # function to the construction of the product basis set for the expansion.
  # See Ref. New J. Phys. 17, 093020 (2015) for more information, particularly Figs. 1 and 6.
  #
  ################################################################################
  #
  # for_aux hydro 5 g 6.0
  ################################################################################
  #
  #  FHI-aims code project
  #  Volker Blum, Fritz Haber Institute Berlin, 2009
  #
  #  Suggested "tight" defaults for O atom (to be pasted into control.in file)
  #
  ################################################################################
    species        O
  #     global species definitions
      nucleus             8
      mass                15.9994
  #
      l_hartree           6
  #
      cut_pot             4.0  2.0  1.0
      basis_dep_cutoff    1e-4
  #
      radial_base         36 7.0
      radial_multiplier   2
       angular_grids specified
        division   0.1817   50
        division   0.3417  110
        division   0.4949  194
        division   0.6251  302
        division   0.8014  434
  #      division   0.8507  590
  #      division   0.8762  770
  #      division   0.9023  974
  #      division   1.2339 1202
  #      outer_grid 974
        outer_grid  434
  ################################################################################
  #
  #  Definition of "minimal" basis
  #
  ################################################################################
  #     valence basis states
      valence      2  s   2.
      valence      2  p   4.
  #     ion occupancy
      ion_occ      2  s   1.
      ion_occ      2  p   3.
  ################################################################################
  #
  #  Suggested additional basis functions. For production calculations,
  #  uncomment them one after another (the most important basis functions are
  #  listed first).
  #
  #  Constructed for dimers: 1.0 A, 1.208 A, 1.5 A, 2.0 A, 3.0 A
  #
  ################################################################################
  #  "First tier" - improvements: -699.05 meV to -159.38 meV
       hydro 2 p 1.8
       hydro 3 d 7.6
       hydro 3 s 6.4
  #  "Second tier" - improvements: -49.91 meV to -5.39 meV
       hydro 4 f 11.6
       hydro 3 p 6.2
       hydro 3 d 5.6
       hydro 5 g 17.6
       hydro 1 s 0.75
  #  "Third tier" - improvements: -2.83 meV to -0.50 meV
  #     ionic 2 p auto
  #     hydro 4 f 10.8
  #     hydro 4 d 4.7
  #     hydro 2 s 6.8
  #  "Fourth tier" - improvements: -0.40 meV to -0.12 meV
  #     hydro 3 p 5
  #     hydro 3 s 3.3
  #     hydro 5 g 15.6
  #     hydro 4 f 17.6
  #     hydro 4 d 14
  # Further basis functions - -0.08 meV and below
  #     hydro 3 s 2.1
  #     hydro 4 d 11.6
  #     hydro 3 p 16
  #     hydro 2 s 17.2
  ################################################################################
  #
  # For methods that use the localized form of the "resolution of identity" for
  # the two-electron Coulomb operator (RI_method LVL), particularly Hartree-Fock and
  # hybrid density functional calculations, the highest accuracy can be obtained by
  # uncommenting the line beginning with "for_aux"  below, thus adding an extra g radial
  # function to the construction of the product basis set for the expansion.
  # See Ref. New J. Phys. 17, 093020 (2015) for more information, particularly Figs. 1 and 6.
  #
  ################################################################################
  #
  # for_aux hydro 5 g 6.0
  ################################################################################
  #
  #  FHI-aims code project
  #  Volker Blum, Fritz Haber Institute Berlin, 2009
  #
  #  Suggested "tight" defaults for H atom (to be pasted into control.in file)
  #
  ################################################################################
    species        H
  #     global species definitions
      nucleus             1
      mass                1.00794
  #
      l_hartree           6
  #
      cut_pot             4.0  2.0  1.0
      basis_dep_cutoff    1e-4
  #
      radial_base         24 7.0
      radial_multiplier   2
      angular_grids       specified
        division   0.1930   50
        division   0.3175  110
        division   0.4293  194
        division   0.5066  302
        division   0.5626  434
  #      division   0.5922  590
  #      division   0.6227  974
  #      division   0.6868 1202
  #      outer_grid  770
        outer_grid  434
  ################################################################################
  #
  #  Definition of "minimal" basis
  #
  ################################################################################
  #     valence basis states
      valence      1  s   1.
  #     ion occupancy
      ion_occ      1  s   0.5
  ################################################################################
  #
  #  Suggested additional basis functions. For production calculations,
  #  uncomment them one after another (the most important basis functions are
  #  listed first).
  #
  #  Basis constructed for dimers: 0.5 A, 0.7 A, 1.0 A, 1.5 A, 2.5 A
  #
  ################################################################################
  #  "First tier" - improvements: -1014.90 meV to -62.69 meV
       hydro 2 s 2.1
       hydro 2 p 3.5
  #  "Second tier" - improvements: -12.89 meV to -1.83 meV
       hydro 1 s 0.85
       hydro 2 p 3.7
       hydro 2 s 1.2
       hydro 3 d 7
  #  "Third tier" - improvements: -0.25 meV to -0.12 meV
  #     hydro 4 f 11.2
  #     hydro 3 p 4.8
  #     hydro 4 d 9
  #     hydro 3 s 3.2
  ################################################################################
  #
  # For methods that use the localized form of the "resolution of identity" for
  # the two-electron Coulomb operator (RI_method LVL), particularly Hartree-Fock and
  # hybrid density functional calculations, the highest accuracy can be obtained by
  # uncommenting the line beginning with "for_aux"  below, thus adding an extra g radial
  # function to the construction of the product basis set for the expansion.
  # See Ref. New J. Phys. 17, 093020 (2015) for more information, particularly Figs. 1 and 6.
  #
  ################################################################################
  #
  # for_aux hydro 5 g 6.0
  
  -----------------------------------------------------------------------
  Completed first pass over input file control.in .
  -----------------------------------------------------------------------
  
  
  -----------------------------------------------------------------------
  Parsing geometry.in (first pass over file, find array dimensions only).
  The contents of geometry.in will be repeated verbatim below
  unless switched off by setting 'verbatim_writeout .false.' .
  in the first line of geometry.in .
  -----------------------------------------------------------------------
  
  #===============================================================================
  # Created using the Atomic Simulation Environment (ASE)
  
  # Tue Nov 11 18:41:06 2025
  
  #=======================================================
  atom 0.6044402700000000 -0.6930199200000000 -0.5066024000000000 C
  qm_embedding_region 1
  atom 0.4950197700000000 0.5441475700000000 -0.4507170500000000 O
  qm_embedding_region 1
  atom -0.3714834200000000 -1.5048233300000000 -0.8792376400000000 O
  qm_embedding_region 1
  atom -1.2133858099999999 -0.9619812100000000 -1.1186774300000000 H
  qm_embedding_region 1
  atom -2.5340395899999999 -0.2056230600000000 -1.5159376600000001 O
  qm_embedding_region 1
  atom -2.6250696200000001 1.0334764599999999 -1.4898492200000000 C
  qm_embedding_region 1
  atom -0.8204470000000000 1.2966647499999999 -0.8338068600000000 H
  qm_embedding_region 1
  atom -1.6537280000000001 1.8440345000000000 -1.1007689000000001 O
  qm_embedding_region 1
  atom 2.0983641199999998 -2.6312280299999999 -1.8749741799999999 H
  qm_embedding_region 2
  atom 1.3514187799999999 -3.4404461300000002 -0.4985927000000000 H
  qm_embedding_region 2
  atom 3.5259095399999998 -3.3098039799999999 -0.4000337400000000 C
  qm_embedding_region 2
  atom 4.3008890900000001 -2.5793310100000002 -0.6901861500000001 H
  qm_embedding_region 2
  atom 3.5988494800000002 -3.4081204700000001 0.6986452000000000 H
  qm_embedding_region 2
  atom 3.8469794099999999 -4.6613369799999997 -1.0546736400000001 C
  qm_embedding_region 2
  atom 1.8918462300000001 -1.3840842900000001 -0.1179706500000000 C
  qm_embedding_region 2
  atom 2.7070067700000000 -0.6726914500000000 -0.3167187400000000 H
  qm_embedding_region 2
  atom 3.0967155599999998 -5.8581125800000002 -0.4534888300000000 C
  qm_embedding_region 2
  atom 3.4025617800000001 -5.9627328500000001 0.6018515700000000 H
  qm_embedding_region 2
  atom 2.0100728900000000 -5.6628517199999999 -0.4365390200000000 H
  qm_embedding_region 2
  atom 3.3564856900000000 -7.1803568000000002 -1.1948902699999999 C
  qm_embedding_region 2
  atom 3.1418398500000002 -8.0280782300000002 -0.5225728400000000 H
  qm_embedding_region 2
  atom 4.4318971400000002 -7.2484914399999996 -1.4347416799999999 H
  qm_embedding_region 2
  atom 2.5171513800000000 -7.3516263200000003 -2.4690238299999998 C
  qm_embedding_region 2
  atom 1.4579250800000001 -7.4304375800000004 -2.1717804799999998 H
  qm_embedding_region 2
  atom 2.5903689399999998 -6.4452874400000004 -3.0966866099999999 H
  qm_embedding_region 2
  atom 2.9022404399999999 -8.5770478699999995 -3.3117181100000002 C
  qm_embedding_region 2
  atom 2.0772857000000000 -8.8170389399999998 -4.0045973100000003 H
  qm_embedding_region 2
  atom 3.0041763800000001 -9.4506686200000001 -2.6445015399999998 H
  qm_embedding_region 2
  atom 4.1830145800000000 -8.3872409700000006 -4.1370106599999996 C
  qm_embedding_region 2
  atom 4.0099895999999999 -7.5665396800000000 -4.8548344600000002 H
  qm_embedding_region 2
  atom 1.8572236400000000 -1.4977928599999999 0.9801585200000000 H
  qm_embedding_region 2
  atom 2.1532342600000001 -2.7413833400000001 -0.7786256600000000 C
  qm_embedding_region 2
  atom 4.6337003100000000 -9.6385977599999997 -4.9052833600000003 C
  qm_embedding_region 2
  atom 5.0080761300000001 -8.0512300200000002 -3.4842124100000000 H
  qm_embedding_region 2
  atom 5.3832538799999998 -9.3460444700000007 -5.6611959900000004 H
  qm_embedding_region 2
  atom 3.7758831700000002 -10.0439641599999998 -5.4691347900000000 H
  qm_embedding_region 2
  atom 4.5308618200000002 -11.0436355800000001 -3.2430344500000001 H
  qm_embedding_region 2
  atom 5.7272527100000001 -11.9752849399999999 -4.7836470300000000 C
  qm_embedding_region 2
  atom 5.2508837799999997 -10.7302685699999998 -4.0198477400000003 C
  qm_embedding_region 2
  atom 6.1079209800000003 -10.2895524300000005 -3.4809550400000000 H
  qm_embedding_region 2
  atom 4.5949426400000002 -12.8802006299999992 -5.2888863900000000 C
  qm_embedding_region 2
  atom 3.9718974500000002 -13.1686001499999996 -4.4239553899999997 H
  qm_embedding_region 2
  atom 3.9315809200000000 -12.3181394999999991 -5.9698130100000002 H
  qm_embedding_region 2
  atom 5.0754114000000001 -14.1547713599999998 -5.9992579099999999 C
  qm_embedding_region 2
  atom 4.2259954100000003 -14.8538219700000003 -6.0939623999999997 H
  qm_embedding_region 2
  atom 5.8179027799999998 -14.6616764899999996 -5.3572252100000002 H
  qm_embedding_region 2
  atom 6.3760718100000000 -12.5740300000000005 -4.1202939799999996 H
  qm_embedding_region 2
  atom 6.3639962700000003 -11.6567621500000005 -5.6279572599999996 H
  qm_embedding_region 2
  atom 4.8765144400000002 -13.4625112599999994 -8.0278083000000002 H
  qm_embedding_region 2
  atom 5.6592470800000001 -13.9222969899999995 -7.3995007599999996 C
  qm_embedding_region 2
  atom 6.4852410500000000 -13.1907093000000000 -7.3566729600000000 H
  qm_embedding_region 2
  atom 6.1627697599999998 -15.2069287200000005 -8.0795948299999996 C
  qm_embedding_region 2
  atom 7.5257873100000001 -15.6948436000000004 -7.5674850500000002 C
  qm_embedding_region 2
  atom 8.2759437899999995 -14.9144501999999992 -7.7861212899999996 H
  qm_embedding_region 2
  atom 6.2403632800000004 -15.0387073699999991 -9.1683398799999996 H
  qm_embedding_region 2
  atom 5.4018227999999997 -15.9962945899999998 -7.9482609999999996 H
  qm_embedding_region 2
  atom 7.9921144899999996 -17.0285214399999987 -8.1725560099999992 C
  qm_embedding_region 2
  atom 7.4994654000000001 -15.7954983099999993 -6.4677415800000002 H
  qm_embedding_region 2
  atom 9.0583385300000003 -17.1712097200000002 -7.9299156399999999 H
  qm_embedding_region 2
  atom 7.9347065199999998 -16.9691000699999996 -9.2745860800000006 H
  qm_embedding_region 2
  atom 7.2866926400000001 -18.3365669999999987 -6.5792882900000000 H
  qm_embedding_region 2
  atom 7.2056411899999997 -18.2462326399999988 -7.6747225600000002 C
  qm_embedding_region 2
  atom 4.9294348799999996 -4.8557837199999998 -0.9578668900000000 H
  qm_embedding_region 2
  atom 3.6461295599999999 -4.5913173499999997 -2.1385304000000001 H
  qm_embedding_region 2
  atom 6.1360125300000004 -18.1807944600000013 -7.9226561300000000 H
  qm_embedding_region 2
  atom 7.5864290700000003 -19.1796913800000013 -8.1145775600000007 H
  qm_embedding_region 2
  atom -3.8849502800000000 1.7508704500000001 -1.8947907200000000 C
  qm_embedding_region 2
  atom -4.5769489800000001 1.0515556100000001 -2.3725430900000002 H
  qm_embedding_region 2
  atom -4.3569127999999999 2.1796205500000001 -0.9996131500000000 H
  qm_embedding_region 2
  atom -3.6453615799999999 2.5835503900000001 -2.5678542700000002 H
  qm_embedding_region 2
  
  -----------------------------------------------------------------------
  Completed first pass over input file geometry.in .
  -----------------------------------------------------------------------
  

  Basic array size parameters:
  | Number of species                 :        3
  | Number of atoms                   :       70
  | Max. basis fn. angular momentum   :        4
  | Max. atomic/ionic basis occupied n:        2
  | Max. number of basis fn. types    :        2
  | Max. radial fns per species/type  :        8
  | Max. logarithmic grid size        :     1301
  | Max. radial integration grid size :       73
  | Max. angular integration grid size:      434
  | Max. angular grid division number :        8
  | Radial grid for Hartree potential :     1301
  | Number of spin channels           :        1

  Definition of standardized fundamental physical constants in this FHI-aims run:
  | Using the set of values used in FHI-aims up to 2024, which combines values from
  | different CODATA sets - see constants.f90.
  | Use the 'codata' keyword in control.in to change this selection.

  Memory overcommitment is allowed on your operating system.

------------------------------------------------------------
          Reading file control.in.
------------------------------------------------------------
  XC: Using PBE gradient-corrected functionals.
  Requested output level: full
  Scalar relativistic treatment of kinetic energy: on-site free-atom approximation to ZORA.
  Occupation type: Gaussian broadening, width =   0.100000E-01 eV.
  Using pulay charge density mixing.
  Pulay mixing - number of memorized iterations:   10
  Kohn-Sham electronic structure solved by the ELSI library.
  The 'LVL' version of RI (resolution of identity) technique is used.
  ** This is a localized expansion of all basis function products.
     Its intended use are Hartree-Fock and hybrid functionals.
     For RPA, MP2, GW, etc., LVL is not yet as accurate. In those cases, check carefully.
  Atomic Solver XC: Using user-defined functional for generating the minimal NAO basis functions.
  Note that only the following functionals are available: kli, pz-lda, pw-lda, vwn, vwn-gauss, pw91_gga, pbe, rpbe, revpbe, pbeint, pbesol, blyp.
  Threshold for basis singularities:  0.1000E-04
  override_illconditioning: Explicitly overriding any built-in checks for an ill-conditioned overlap matrix.
** WARNING:
  ***  If you use this flag, you should really know what you are doing.
** END OF WARNING
** WARNING:
  *** DO NOT keep this flag set by default in all your control.in files.
** END OF WARNING
  Efficient 2D distribution for correlation code.
  Charge =   0.000000E+00: Neutral system requested explicitly.
 
  Reading configuration options for species C                   .
  | Found nuclear charge :   6.0000
  | Found atomic mass :    12.0107000000000      amu
  | Found l_max for Hartree potential  :   6
  | Found cutoff potl. onset [A], width [A], scale factor :    4.00000    2.00000    1.00000
  | Threshold for basis-dependent cutoff potential is   0.100000E-03
  | Found data for basic radial integration grid :    34 points, outermost radius =    7.000 A
  | Found multiplier for basic radial grid :   2
  | Found angular grid specification: user-specified.
  | Specified grid contains     6 separate shells.
  | Check grid settings after all constraints further below.
  | Found free-atom valence shell :  2 s   2.000
  | Found free-atom valence shell :  2 p   2.000
  | No ionic wave fns used. Skipping ion_occ.
  | No ionic wave fns used. Skipping ion_occ.
  | Found hydrogenic basis function :  2 p   1.700
  | Found hydrogenic basis function :  3 d   6.000
  | Found hydrogenic basis function :  2 s   4.900
  | Found hydrogenic basis function :  4 f   9.800
  | Found hydrogenic basis function :  3 p   5.200
  | Found hydrogenic basis function :  3 s   4.300
  | Found hydrogenic basis function :  5 g  14.400
  | Found hydrogenic basis function :  3 d   6.200
 | Encountered keyword species, ending the description of species C                   .
  Species C                   : Missing cutoff potential type.
  Defaulting to exp(1/x)/(1-x)^2 type cutoff potential.
  Species C : No 'logarithmic' tag. Using default grid for free atom:
  | Default logarithmic grid data [bohr] : 0.1000E-03 0.1000E+03 0.1012E+01
  Species C : On-site basis accuracy parameter (for Gram-Schmidt orthonormalisation) not specified.
  Using default value basis_acc =  0.1000000E-03.
  Species C                   : Using default innermost maximum threshold i_radial=  2 for radial functions.
  Species C                   : Default cutoff onset for free atom density etc. : 0.40000000E+01 AA.
  Species C                   : Basic radial grid will be enhanced according to radial_multiplier =   2, to contain    69 grid points.
 
  Reading configuration options for species O                   .
  | Found nuclear charge :   8.0000
  | Found atomic mass :    15.9994000000000      amu
  | Found l_max for Hartree potential  :   6
  | Found cutoff potl. onset [A], width [A], scale factor :    4.00000    2.00000    1.00000
  | Threshold for basis-dependent cutoff potential is   0.100000E-03
  | Found data for basic radial integration grid :    36 points, outermost radius =    7.000 A
  | Found multiplier for basic radial grid :   2
  | Found angular grid specification: user-specified.
  | Specified grid contains     6 separate shells.
  | Check grid settings after all constraints further below.
  | Found free-atom valence shell :  2 s   2.000
  | Found free-atom valence shell :  2 p   4.000
  | No ionic wave fns used. Skipping ion_occ.
  | No ionic wave fns used. Skipping ion_occ.
  | Found hydrogenic basis function :  2 p   1.800
  | Found hydrogenic basis function :  3 d   7.600
  | Found hydrogenic basis function :  3 s   6.400
  | Found hydrogenic basis function :  4 f  11.600
  | Found hydrogenic basis function :  3 p   6.200
  | Found hydrogenic basis function :  3 d   5.600
  | Found hydrogenic basis function :  5 g  17.600
  | Found hydrogenic basis function :  1 s   0.750
 | Encountered keyword species, ending the description of species O                   .
  Species O                   : Missing cutoff potential type.
  Defaulting to exp(1/x)/(1-x)^2 type cutoff potential.
  Species O : No 'logarithmic' tag. Using default grid for free atom:
  | Default logarithmic grid data [bohr] : 0.1000E-03 0.1000E+03 0.1012E+01
  Species O : On-site basis accuracy parameter (for Gram-Schmidt orthonormalisation) not specified.
  Using default value basis_acc =  0.1000000E-03.
  Species O                   : Using default innermost maximum threshold i_radial=  2 for radial functions.
  Species O                   : Default cutoff onset for free atom density etc. : 0.40000000E+01 AA.
  Species O                   : Basic radial grid will be enhanced according to radial_multiplier =   2, to contain    73 grid points.
 
  Reading configuration options for species H                   .
  | Found nuclear charge :   1.0000
  | Found atomic mass :    1.00794000000000      amu
  | Found l_max for Hartree potential  :   6
  | Found cutoff potl. onset [A], width [A], scale factor :    4.00000    2.00000    1.00000
  | Threshold for basis-dependent cutoff potential is   0.100000E-03
  | Found data for basic radial integration grid :    24 points, outermost radius =    7.000 A
  | Found multiplier for basic radial grid :   2
  | Found angular grid specification: user-specified.
  | Specified grid contains     6 separate shells.
  | Check grid settings after all constraints further below.
  | Found free-atom valence shell :  1 s   1.000
  | No ionic wave fns used. Skipping ion_occ.
  | Found hydrogenic basis function :  2 s   2.100
  | Found hydrogenic basis function :  2 p   3.500
  | Found hydrogenic basis function :  1 s   0.850
  | Found hydrogenic basis function :  2 p   3.700
  | Found hydrogenic basis function :  2 s   1.200
  | Found hydrogenic basis function :  3 d   7.000
  Species H                   : Missing cutoff potential type.
  Defaulting to exp(1/x)/(1-x)^2 type cutoff potential.
  Species H : No 'logarithmic' tag. Using default grid for free atom:
  | Default logarithmic grid data [bohr] : 0.1000E-03 0.1000E+03 0.1012E+01
  Species H : On-site basis accuracy parameter (for Gram-Schmidt orthonormalisation) not specified.
  Using default value basis_acc =  0.1000000E-03.
  Species H                   : Using default innermost maximum threshold i_radial=  2 for radial functions.
  Species H                   : Default cutoff onset for free atom density etc. : 0.40000000E+01 AA.
  Species H                   : Basic radial grid will be enhanced according to radial_multiplier =   2, to contain    49 grid points.
 
  Finished reading input file 'control.in'.
 
------------------------------------------------------------


------------------------------------------------------------
          Reading geometry description geometry.in.
------------------------------------------------------------
  | The smallest distance between any two atoms is         1.02995564 AA.
  | The first atom of this pair is atom number                      3 .
  | The second atom of this pair is atom number                     4 .
  Input structure read successfully.
  The structure contains       70 atoms,  and a total of        208.000 electrons.

  Input geometry:
  | No unit cell requested.
  | Atomic structure:
  |       Atom                x [A]            y [A]            z [A]
  |    1: Species C             0.60444027       -0.69301992       -0.50660240
  |    2: Species O             0.49501977        0.54414757       -0.45071705
  |    3: Species O            -0.37148342       -1.50482333       -0.87923764
  |    4: Species H            -1.21338581       -0.96198121       -1.11867743
  |    5: Species O            -2.53403959       -0.20562306       -1.51593766
  |    6: Species C            -2.62506962        1.03347646       -1.48984922
  |    7: Species H            -0.82044700        1.29666475       -0.83380686
  |    8: Species O            -1.65372800        1.84403450       -1.10076890
  |    9: Species H             2.09836412       -2.63122803       -1.87497418
  |   10: Species H             1.35141878       -3.44044613       -0.49859270
  |   11: Species C             3.52590954       -3.30980398       -0.40003374
  |   12: Species H             4.30088909       -2.57933101       -0.69018615
  |   13: Species H             3.59884948       -3.40812047        0.69864520
  |   14: Species C             3.84697941       -4.66133698       -1.05467364
  |   15: Species C             1.89184623       -1.38408429       -0.11797065
  |   16: Species H             2.70700677       -0.67269145       -0.31671874
  |   17: Species C             3.09671556       -5.85811258       -0.45348883
  |   18: Species H             3.40256178       -5.96273285        0.60185157
  |   19: Species H             2.01007289       -5.66285172       -0.43653902
  |   20: Species C             3.35648569       -7.18035680       -1.19489027
  |   21: Species H             3.14183985       -8.02807823       -0.52257284
  |   22: Species H             4.43189714       -7.24849144       -1.43474168
  |   23: Species C             2.51715138       -7.35162632       -2.46902383
  |   24: Species H             1.45792508       -7.43043758       -2.17178048
  |   25: Species H             2.59036894       -6.44528744       -3.09668661
  |   26: Species C             2.90224044       -8.57704787       -3.31171811
  |   27: Species H             2.07728570       -8.81703894       -4.00459731
  |   28: Species H             3.00417638       -9.45066862       -2.64450154
  |   29: Species C             4.18301458       -8.38724097       -4.13701066
  |   30: Species H             4.00998960       -7.56653968       -4.85483446
  |   31: Species H             1.85722364       -1.49779286        0.98015852
  |   32: Species C             2.15323426       -2.74138334       -0.77862566
  |   33: Species C             4.63370031       -9.63859776       -4.90528336
  |   34: Species H             5.00807613       -8.05123002       -3.48421241
  |   35: Species H             5.38325388       -9.34604447       -5.66119599
  |   36: Species H             3.77588317      -10.04396416       -5.46913479
  |   37: Species H             4.53086182      -11.04363558       -3.24303445
  |   38: Species C             5.72725271      -11.97528494       -4.78364703
  |   39: Species C             5.25088378      -10.73026857       -4.01984774
  |   40: Species H             6.10792098      -10.28955243       -3.48095504
  |   41: Species C             4.59494264      -12.88020063       -5.28888639
  |   42: Species H             3.97189745      -13.16860015       -4.42395539
  |   43: Species H             3.93158092      -12.31813950       -5.96981301
  |   44: Species C             5.07541140      -14.15477136       -5.99925791
  |   45: Species H             4.22599541      -14.85382197       -6.09396240
  |   46: Species H             5.81790278      -14.66167649       -5.35722521
  |   47: Species H             6.37607181      -12.57403000       -4.12029398
  |   48: Species H             6.36399627      -11.65676215       -5.62795726
  |   49: Species H             4.87651444      -13.46251126       -8.02780830
  |   50: Species C             5.65924708      -13.92229699       -7.39950076
  |   51: Species H             6.48524105      -13.19070930       -7.35667296
  |   52: Species C             6.16276976      -15.20692872       -8.07959483
  |   53: Species C             7.52578731      -15.69484360       -7.56748505
  |   54: Species H             8.27594379      -14.91445020       -7.78612129
  |   55: Species H             6.24036328      -15.03870737       -9.16833988
  |   56: Species H             5.40182280      -15.99629459       -7.94826100
  |   57: Species C             7.99211449      -17.02852144       -8.17255601
  |   58: Species H             7.49946540      -15.79549831       -6.46774158
  |   59: Species H             9.05833853      -17.17120972       -7.92991564
  |   60: Species H             7.93470652      -16.96910007       -9.27458608
  |   61: Species H             7.28669264      -18.33656700       -6.57928829
  |   62: Species C             7.20564119      -18.24623264       -7.67472256
  |   63: Species H             4.92943488       -4.85578372       -0.95786689
  |   64: Species H             3.64612956       -4.59131735       -2.13853040
  |   65: Species H             6.13601253      -18.18079446       -7.92265613
  |   66: Species H             7.58642907      -19.17969138       -8.11457756
  |   67: Species C            -3.88495028        1.75087045       -1.89479072
  |   68: Species H            -4.57694898        1.05155561       -2.37254309
  |   69: Species H            -4.35691280        2.17962055       -0.99961315
  |   70: Species H            -3.64536158        2.58355039       -2.56785427

  Slab Identifier: This is not a periodic structure.
 
  Finished reading input file 'geometry.in'.
 

 
  Consistency checks for stacksize environment parameter are next.
 
  | Maximum stacksize for task 0: unlimited
  | Maximum stacksize for task 1: unlimited
  | Maximum stacksize for task 2: unlimited
  | Maximum stacksize for task 3: unlimited
  | Maximum stacksize for task 4: unlimited
  | Maximum stacksize for task 5: unlimited
  | Maximum stacksize for task 6: unlimited
  | Maximum stacksize for task 7: unlimited
  | Maximum stacksize for task 8: unlimited
  | Maximum stacksize for task 9: unlimited
  | Maximum stacksize for task 10: unlimited
  | Maximum stacksize for task 11: unlimited
  | Maximum stacksize for task 12: unlimited
  | Maximum stacksize for task 13: unlimited
  | Maximum stacksize for task 14: unlimited
  | Maximum stacksize for task 15: unlimited
  | Maximum stacksize for task 16: unlimited
  | Maximum stacksize for task 17: unlimited
  | Maximum stacksize for task 18: unlimited
  | Maximum stacksize for task 19: unlimited
  | Maximum stacksize for task 20: unlimited
  | Maximum stacksize for task 21: unlimited
  | Maximum stacksize for task 22: unlimited
  | Maximum stacksize for task 23: unlimited
  | Maximum stacksize for task 24: unlimited
  | Maximum stacksize for task 25: unlimited
  | Maximum stacksize for task 26: unlimited
  | Maximum stacksize for task 27: unlimited
  | Maximum stacksize for task 28: unlimited
  | Maximum stacksize for task 29: unlimited
  | Maximum stacksize for task 30: unlimited
  | Maximum stacksize for task 31: unlimited
  | Maximum stacksize for task 32: unlimited
  | Maximum stacksize for task 33: unlimited
  | Maximum stacksize for task 34: unlimited
  | Maximum stacksize for task 35: unlimited
  | Maximum stacksize for task 36: unlimited
  | Maximum stacksize for task 37: unlimited
  | Maximum stacksize for task 38: unlimited
  | Maximum stacksize for task 39: unlimited
  | Maximum stacksize for task 40: unlimited
  | Maximum stacksize for task 41: unlimited
  | Maximum stacksize for task 42: unlimited
  | Maximum stacksize for task 43: unlimited
  | Maximum stacksize for task 44: unlimited
  | Maximum stacksize for task 45: unlimited
  | Maximum stacksize for task 46: unlimited
  | Maximum stacksize for task 47: unlimited
  | Maximum stacksize for task 48: unlimited
  | Maximum stacksize for task 49: unlimited
  | Maximum stacksize for task 50: unlimited
  | Maximum stacksize for task 51: unlimited
  | Maximum stacksize for task 52: unlimited
  | Maximum stacksize for task 53: unlimited
  | Maximum stacksize for task 54: unlimited
  | Maximum stacksize for task 55: unlimited
  | Maximum stacksize for task 56: unlimited
  | Maximum stacksize for task 57: unlimited
  | Maximum stacksize for task 58: unlimited
  | Maximum stacksize for task 59: unlimited
  | Maximum stacksize for task 60: unlimited
  | Maximum stacksize for task 61: unlimited
  | Maximum stacksize for task 62: unlimited
  | Maximum stacksize for task 63: unlimited
  | Current stacksize for task 0: unlimited
  | Current stacksize for task 1: unlimited
  | Current stacksize for task 2: unlimited
  | Current stacksize for task 3: unlimited
  | Current stacksize for task 4: unlimited
  | Current stacksize for task 5: unlimited
  | Current stacksize for task 6: unlimited
  | Current stacksize for task 7: unlimited
  | Current stacksize for task 8: unlimited
  | Current stacksize for task 9: unlimited
  | Current stacksize for task 10: unlimited
  | Current stacksize for task 11: unlimited
  | Current stacksize for task 12: unlimited
  | Current stacksize for task 13: unlimited
  | Current stacksize for task 14: unlimited
  | Current stacksize for task 15: unlimited
  | Current stacksize for task 16: unlimited
  | Current stacksize for task 17: unlimited
  | Current stacksize for task 18: unlimited
  | Current stacksize for task 19: unlimited
  | Current stacksize for task 20: unlimited
  | Current stacksize for task 21: unlimited
  | Current stacksize for task 22: unlimited
  | Current stacksize for task 23: unlimited
  | Current stacksize for task 24: unlimited
  | Current stacksize for task 25: unlimited
  | Current stacksize for task 26: unlimited
  | Current stacksize for task 27: unlimited
  | Current stacksize for task 28: unlimited
  | Current stacksize for task 29: unlimited
  | Current stacksize for task 30: unlimited
  | Current stacksize for task 31: unlimited
  | Current stacksize for task 32: unlimited
  | Current stacksize for task 33: unlimited
  | Current stacksize for task 34: unlimited
  | Current stacksize for task 35: unlimited
  | Current stacksize for task 36: unlimited
  | Current stacksize for task 37: unlimited
  | Current stacksize for task 38: unlimited
  | Current stacksize for task 39: unlimited
  | Current stacksize for task 40: unlimited
  | Current stacksize for task 41: unlimited
  | Current stacksize for task 42: unlimited
  | Current stacksize for task 43: unlimited
  | Current stacksize for task 44: unlimited
  | Current stacksize for task 45: unlimited
  | Current stacksize for task 46: unlimited
  | Current stacksize for task 47: unlimited
  | Current stacksize for task 48: unlimited
  | Current stacksize for task 49: unlimited
  | Current stacksize for task 50: unlimited
  | Current stacksize for task 51: unlimited
  | Current stacksize for task 52: unlimited
  | Current stacksize for task 53: unlimited
  | Current stacksize for task 54: unlimited
  | Current stacksize for task 55: unlimited
  | Current stacksize for task 56: unlimited
  | Current stacksize for task 57: unlimited
  | Current stacksize for task 58: unlimited
  | Current stacksize for task 59: unlimited
  | Current stacksize for task 60: unlimited
  | Current stacksize for task 61: unlimited
  | Current stacksize for task 62: unlimited
  | Current stacksize for task 63: unlimited
 
  Consistency checks for the contents of control.in are next.
 
  MPI_IN_PLACE appears to work with this MPI implementation.
  | Keeping use_mpi_in_place .true. (see manual).
  Target number of points in a grid batch is not set. Defaulting to  100
  Method for grid partitioning is not set. Defaulting to parallel hash+maxmin partitioning.
  Batch size limit is not set. Defaulting to    200
  By default, will store active basis functions for each batch.
  If in need of memory, prune_basis_once .false. can be used to disable this option.
  communication_type for Hartree potential was not specified.
  Defaulting to calc_hartree .
  Pulay mixer: Number of initial linear mixing iterations not set.
  Defaulting to    0 iterations.
  Work space size for distributed Hartree potential not set.
  Defaulting to   0.200000E+03 MB.
  Mixing parameter for charge density mixing has not been set.
  Using default: charge_mix_param =     0.0500.
  The mixing parameter will be adjusted in iteration number     2 of each s.c.f. cycle (i.e., each geometry step).
  Algorithm-dependent basis array size parameters:
  | n_max_pulay                         :       10
  Maximum number of self-consistency iterations not provided.
  Presetting  1000 iterations.
  Presetting      1001 iterations before the initial mixing cycle
  is restarted anyway using the sc_init_iter criterion / keyword.
  Presetting a factor      1.000 between actual scf density residual
  and density convergence criterion sc_accuracy_rho below which sc_init_iter
  takes no effect.
 * No s.c.f. convergence criteria (sc_accuracy_*) were provided in control.in.
 * The run will proceed with a reasonable default guess, but please check whether.
 * the s.c.f. cycles seem to take too much or too little time.
  Calculation of forces was not defined in control.in. No forces will be calculated.
  Geometry relaxation not requested: no relaxation will be performed.
 * Notice: The s.c.f. convergence criterion sc_accuracy_rho was not provided.
 * We used to stop in this case, and ask the user to provide reasonable
 * scf convergence criteria. However, this led some users to employ criteria
 * that led to extremely long run times, e.g., for simple relaxation.
 * We now preset a default value for sc_accuracy_rho if it is not set.
 * You may still wish to check if this setting is too tight or too loose for your needs.
 * Based on n_atoms and forces and force-correction status, FHI-aims chose sc_accuracy_rho =  0.273252E-04 .
  No accuracy limit for integral partition fn. given. Defaulting to  0.1000E-14.
  No threshold value for u(r) in integrations given. Defaulting to  0.1000E-05.
  No accuracy for occupation numbers given. Defaulting to  0.1000E-12.
  No threshold value for occupation numbers given. Defaulting to  0.0000E+00.
  No accuracy for fermi level given. Defaulting to  0.1000E-19.
  Maximum # of iterations to find E_F not set. Defaulting to  200.
  Will not use alltoall communication since running on < 1024 CPUs.
  partition_type (choice of integration weights) for integrals was not specified.
  | Using a version of the partition function of Stratmann and coworkers ('stratmann_sparse').
  | At each grid point, the set of atoms used to build the partition table is smoothly restricted to
  | only those atoms whose free-atom density would be non-zero at that grid point.
  Partitioning for Hartree potential was not defined. Using partition_type for integrals.
  | Adjusted default value of keyword multip_moments_threshold to:       0.10000000E-11
  | This value may affect high angular momentum components of the Hartree potential in periodic systems.
  Spin handling was not defined in control.in. Defaulting to unpolarized case.
  No q(lm)/r^(l+1) cutoff set for long-range Hartree potential.
  | Using default value of  0.100000E-09 .
  | Verify using the multipole_threshold keyword.
  Defaulting to new monopole extrapolation.
  Density update method: density matrix based density update selected.
  Scalapack and density-matrix based density update required:
  Switching to packed matrix format "index" by default.
  Charge integration errors on the 3D integration grid will be compensated
  by explicit normalization and distribution of residual charges.
  Use the "compensate_multipole_errors" flag to change this behaviour.
  Found no potential conflicts with setting 'use_local_index' for this calculation.
  Flag 'use_local_index' has not been set.
  Testing whether we classify this calculation as large-scale ...
  The calculation contains less than 100 atoms. This is most likely not a large-scale calculation.
  Not setting 'use_local_index'.
 
  Consistency checks for the contents of geometry.in are next.
 
  Number of empty states per atom not set in control.in - providing a guess from actual geometry.
  | Total number of empty states used during s.c.f. cycle:      144
  If you use a very high smearing, use empty_states (per atom!) in control.in to increase this value.

  Structure-dependent array size parameters: 
  | Maximum number of distinct radial functions  :       29
  | Maximum number of basis functions            :     1674
  | Number of Kohn-Sham states (occupied + empty):      248
------------------------------------------------------------
  After read_input_data [GB]:    229.73

  Performing system and environment tests:
  | Environment variable OMP_NUM_THREADS correctly set to 1.
  | Checking for ScaLAPACK...
  | Testing pdtran()...
  | All pdtran() tests passed.
  | Testing CPU compatibility for run-time vs. build-time.
  | Reading /proc/cpuinfo for CPU information ...
  | Built for  : AMD EPYC 7502 32-Core Processor
  | Running on : AMD EPYC 7502 32-Core Processor
  | Runtime CPU compatibility verified.
  
  After prepare_system [GB]:    229.63

------------------------------------------------------------
          Preparing all fixed parts of the calculation.
------------------------------------------------------------
  Determining machine precision:
    2.225073858507201E-308
  Setting up grids for atomic and cluster calculations.

  Creating wave function, potential, and density for free atoms.
  Runtime choices for atomic solver:
  | atomic solver xc        : PBE
  | compute density gradient: 1
  | compute kinetic density : F

  Species: C

  List of occupied orbitals and eigenvalues:
    n    l              occ      energy [Ha]    energy [eV]
    1    0           2.0000       -10.049212      -273.4530
    2    0           2.0000        -0.504761       -13.7352
    2    1           2.0000        -0.193631        -5.2690


  Species: O

  List of occupied orbitals and eigenvalues:
    n    l              occ      energy [Ha]    energy [eV]
    1    0           2.0000       -18.927378      -515.0401
    2    0           2.0000        -0.880539       -23.9607
    2    1           4.0000        -0.331811        -9.0290


  Species: H

  List of occupied orbitals and eigenvalues:
    n    l              occ      energy [Ha]    energy [eV]
    1    0           1.0000        -0.238386        -6.4868


  Adding cutoff potential to free-atom effective potential.
  Creating fixed part of basis set: Ionic, confined, hydrogenic.
 
  C                    hydrogenic:
 
  List of hydrogenic basis orbitals: 
    n    l      effective z      eigenvalue [eV]  inner max. [A]     outer max. [A]     outer radius [A]   
    2    1         1.700000        -9.8152           1.245706           1.245706           5.401630
    3    2         6.000000       -54.4226           0.792453           0.792453           4.178599
    2    0         4.900000       -81.6681           0.082559           0.562749           3.353238
    4    3         9.800000       -81.6681           0.863254           0.863254           4.028125
    3    1         5.200000       -40.8774           0.305389           1.215618           4.898362
    3    0         4.300000       -27.9508           0.091041           1.610311           5.401630
    5    4        14.400000      -112.8510           0.917666           0.917666           3.883070
    3    2         6.200000       -58.1113           0.763917           0.763917           4.077671
 
 
  O                    hydrogenic:
 
  List of hydrogenic basis orbitals: 
    n    l      effective z      eigenvalue [eV]  inner max. [A]     outer max. [A]     outer radius [A]   
    2    1         1.800000       -11.0118           1.178562           1.178562           5.432602
    3    2         7.600000       -87.3182           0.624125           0.624125           3.541477
    3    0         6.400000       -61.9209           0.061167           1.081902           4.306578
    4    3        11.600000      -114.4238           0.731631           0.731631           3.585037
    3    1         6.200000       -58.1113           0.255680           1.030270           4.306578
    3    2         5.600000       -47.4081           0.847233           0.847233           4.413171
    5    4        17.600000      -168.5799           0.749740           0.749740           3.372465
    1    0         0.750000        -7.6499           0.705284           0.705284           5.366593
 
 
  H                    hydrogenic:
 
  List of hydrogenic basis orbitals: 
    n    l      effective z      eigenvalue [eV]  inner max. [A]     outer max. [A]     outer radius [A]   
    2    0         2.100000       -14.9965           0.193243           1.317208           5.373006
    2    1         3.500000       -41.6672           0.602369           0.602369           4.056063
    1    0         0.850000        -9.8292           0.624871           0.624871           5.373006
    2    1         3.700000       -46.5653           0.573622           0.573622           3.910002
    2    0         1.200000        -4.5995           0.334980           2.228188           5.505995
    3    2         7.000000       -74.0753           0.680699           0.680699           3.769201
 
  Creating atomic-like basis functions for current effective potential.

  Species C                   :

  List of atomic basis orbitals and eigenvalues:
    n    l      energy [Ha]    energy [eV]    outer radius [A]
    1    0       -10.049212      -273.4530       1.934409
    2    0        -0.504761       -13.7352       5.271162
    2    1        -0.193631        -5.2690       5.401630


  Species O                   :

  List of atomic basis orbitals and eigenvalues:
    n    l      energy [Ha]    energy [eV]    outer radius [A]
    1    0       -18.927378      -515.0401       1.415765
    2    0        -0.880539       -23.9607       5.048385
    2    1        -0.331811        -9.0290       5.301386


  Species H                   :

  List of atomic basis orbitals and eigenvalues:
    n    l      energy [Ha]    energy [eV]    outer radius [A]
    1    0        -0.238386        -6.4868       5.373006

  Assembling full basis from fixed parts.
  | Species C :   atomic orbital   1 s accepted.
  | Species C :    hydro orbital   2 s accepted.
  | Species C :   atomic orbital   2 s accepted.
  | Species C :    hydro orbital   3 s accepted.
  | Species C :    hydro orbital   3 p accepted.
  | Species C :   atomic orbital   2 p accepted.
  | Species C :    hydro orbital   2 p accepted.
  | Species C :    hydro orbital   3 d accepted.
  | Species C :    hydro orbital   3 d accepted.
  | Species C :    hydro orbital   4 f accepted.
  | Species C :    hydro orbital   5 g accepted.
  | Species O :   atomic orbital   1 s accepted.
  | Species O :    hydro orbital   3 s accepted.
  | Species O :   atomic orbital   2 s accepted.
  | Species O :    hydro orbital   1 s accepted.
  | Species O :    hydro orbital   3 p accepted.
  | Species O :   atomic orbital   2 p accepted.
  | Species O :    hydro orbital   2 p accepted.
  | Species O :    hydro orbital   3 d accepted.
  | Species O :    hydro orbital   3 d accepted.
  | Species O :    hydro orbital   4 f accepted.
  | Species O :    hydro orbital   5 g accepted.
  | Species H :   atomic orbital   1 s accepted.
  | Species H :    hydro orbital   2 s accepted.
  | Species H :    hydro orbital   1 s accepted.
  | Species H :    hydro orbital   2 s accepted.
  | Species H :    hydro orbital   2 p accepted.
  | Species H :    hydro orbital   2 p accepted.
  | Species H :    hydro orbital   3 d accepted.
 
  Basis size parameters after reduction:
  | Total number of radial functions:       29
  | Total number of basis functions :     1674
 
  Per-task memory consumption for arrays in subroutine allocate_ext:
  |           9.702580MB.
  Testing on-site integration grid accuracy.
  |  Species  Function  <phi|h_atom|phi> (log., in eV)  <phi|h_atom|phi> (rad., in eV)
           1        1               -273.4529725981               -273.4529710451
           1        2                -10.7721037329                -10.7721022102
           1        3                 17.6044132585                 17.6044162052
           1        4                 53.7706460564                 53.7706913681
           1        5                 15.0973290351                 15.0973256011
           1        6                  3.8545134677                  3.8545724657
           1        7                 12.1156992586                 12.1182024423
           1        8                 29.4352039288                 29.4352041805
           1        9                 54.8741144697                 54.8740268719
           1       10                 59.3556032036                 59.3556031370
           1       11                 93.4551837140                 93.4551837996
           2       12               -515.0401491148               -515.0401445497
           2       13                 15.1629302771                 15.1629233102
           2       14                -21.6127103295                -21.6127145449
           2       15                 14.4001435709                 14.4001765990
           2       16                 20.8862585187                 20.8862589491
           2       17                 -2.4803658578                 -2.4803665016
           2       18                 13.8586387760                 13.8586021622
           2       19                 45.8331828879                 45.8331828941
           2       20                 52.1851961049                 52.1851977023
           2       21                 85.4133898762                 85.4133899074
           2       22                142.1023296234                142.1023296272
           3       23                 -6.4870767962                 -6.4871688290
           3       24                 13.5032046589                 13.5028982997
           3       25                 32.8195184817                 32.8119941656
           3       26                 33.8513856511                 33.7670005767 ***
           3       27                 28.8544614965                 28.8544615203
           3       28                 59.6326952547                 59.6327656460
           3       29                 60.2719308513                 60.2719305949
 * Note: Onsite integrals marked "***" above are less accurate than
 * onsite_accuracy_threshold =    0.03000 eV. Usually, this is harmless.
 * When in doubt, tighten the "radial" and/or "radial_multiplier" flags to check.

  Task       0:*** pseudo_inverse, for evaluate_coeff_d: error of  6.04E-14; eps:  1.00E-15
  Preparing densities etc. for the partition functions (integrals / Hartree potential).

  Preparations completed.
  max(cpu_time)          :      0.160 s.
  Wall clock time (cpu1) :      0.163 s.
------------------------------------------------------------
  After prepare_scf [GB]:    227.83

  Initializing index lists of integration centers etc. from given atomic structure:
  | Number of centers in hartree potential                       :        70
  | Number of centers in hartree multipole                       :        70
  | Number of centers in electron density summation              :        70
  | Number of centers in basis integrals                         :        70
  | Number of centers in integrals                               :        70
  | Number of centers in hamiltonian                             :        70
  | Number of centers in partition table from touching 0-cell    :        70
  | Number of centers in partition table total                   :        70
  After initialize_bc_dependent_lists [GB]:    227.83

  Initializing index lists of integration centers etc. from given atomic structure:
  | Number of centers in hartree potential                       :        70
  | Number of centers in hartree multipole                       :        70
  | Number of centers in electron density summation              :        70
  | Number of centers in basis integrals                         :        70
  | Number of centers in integrals                               :        70
  | Number of centers in hamiltonian                             :        70
  | Number of centers in partition table from touching 0-cell    :        70
  | Number of centers in partition table total                   :        70

------------------------------------------------------------
          Begin self-consistency loop: Initialization.

          Date     :  20251111, Time     :  184110.891
------------------------------------------------------------
  Available memory per node after initialize_hartree_non_periodic_ewald [GB]:    227.83
  Available memory per node after initialize_recip_hartree_potential [GB]:    227.83
  * Using 64 tasks for Scalapack Eigenvalue solver.
  Detailed listing of tasks and assigned k-points:
  (for non-periodic systems, the "k-point" denotes an internal label only)
   Task     0 k-point     1 on cca9065
   Task     1 k-point     1 on cca9065
   Task     2 k-point     1 on cca9065
   Task     3 k-point     1 on cca9065
   Task     4 k-point     1 on cca9065
   Task     5 k-point     1 on cca9065
   Task     6 k-point     1 on cca9065
   Task     7 k-point     1 on cca9065
   Task     8 k-point     1 on cca9065
   Task     9 k-point     1 on cca9065
   Task    10 k-point     1 on cca9065
   Task    11 k-point     1 on cca9065
   Task    12 k-point     1 on cca9065
   Task    13 k-point     1 on cca9065
   Task    14 k-point     1 on cca9065
   Task    15 k-point     1 on cca9065
   Task    16 k-point     1 on cca9065
   Task    17 k-point     1 on cca9065
   Task    18 k-point     1 on cca9065
   Task    19 k-point     1 on cca9065
   Task    20 k-point     1 on cca9065
   Task    21 k-point     1 on cca9065
   Task    22 k-point     1 on cca9065
   Task    23 k-point     1 on cca9065
   Task    24 k-point     1 on cca9065
   Task    25 k-point     1 on cca9065
   Task    26 k-point     1 on cca9065
   Task    27 k-point     1 on cca9065
   Task    28 k-point     1 on cca9065
   Task    29 k-point     1 on cca9065
   Task    30 k-point     1 on cca9065
   Task    31 k-point     1 on cca9065
   Task    32 k-point     1 on cca9065
   Task    33 k-point     1 on cca9065
   Task    34 k-point     1 on cca9065
   Task    35 k-point     1 on cca9065
   Task    36 k-point     1 on cca9065
   Task    37 k-point     1 on cca9065
   Task    38 k-point     1 on cca9065
   Task    39 k-point     1 on cca9065
   Task    40 k-point     1 on cca9065
   Task    41 k-point     1 on cca9065
   Task    42 k-point     1 on cca9065
   Task    43 k-point     1 on cca9065
   Task    44 k-point     1 on cca9065
   Task    45 k-point     1 on cca9065
   Task    46 k-point     1 on cca9065
   Task    47 k-point     1 on cca9065
   Task    48 k-point     1 on cca9065
   Task    49 k-point     1 on cca9065
   Task    50 k-point     1 on cca9065
   Task    51 k-point     1 on cca9065
   Task    52 k-point     1 on cca9065
   Task    53 k-point     1 on cca9065
   Task    54 k-point     1 on cca9065
   Task    55 k-point     1 on cca9065
   Task    56 k-point     1 on cca9065
   Task    57 k-point     1 on cca9065
   Task    58 k-point     1 on cca9065
   Task    59 k-point     1 on cca9065
   Task    60 k-point     1 on cca9065
   Task    61 k-point     1 on cca9065
   Task    62 k-point     1 on cca9065
   Task    63 k-point     1 on cca9065
  Tasks:    64 split into      8 X      8 BLACS grid
  Calculating block size based on n_basis =         1674  max_nprow =            8  max_npcol =            8
  ScaLAPACK block size set to:           16
  Allocating        0.363 MB for ovlp
  Allocating        0.363 MB for ham
  Allocating        0.363 MB for eigenvec
  Required Scalapack workspace - INTEGER:            1  REAL:             1
  Available memory per node after initialize_scalapack [GB]:    227.79
  Available memory per node after aims_elsi_init_scf [GB]:    227.79
  Available memory per node after initialize_fixed_grids [GB]:    227.79
  Partitioning the integration grid into batches with parallel hashing+maxmin method.
  | Number of batches:    11093
  | Maximal batch size:     200
  | Minimal batch size:       1
  | Average batch size:     100.430
  | Standard deviation of batch sizes:      24.146

  Integration load balanced across    64 MPI tasks.
  Work distribution over tasks is as follows:
  Task     0 has      17405 integration points.
  Task     1 has      17397 integration points.
  Task     2 has      17347 integration points.
  Task     3 has      17466 integration points.
  Task     4 has      17355 integration points.
  Task     5 has      17365 integration points.
  Task     6 has      17462 integration points.
  Task     7 has      17507 integration points.
  Task     8 has      17324 integration points.
  Task     9 has      17446 integration points.
  Task    10 has      17327 integration points.
  Task    11 has      17468 integration points.
  Task    12 has      17355 integration points.
  Task    13 has      17466 integration points.
  Task    14 has      17348 integration points.
  Task    15 has      17326 integration points.
  Task    16 has      17327 integration points.
  Task    17 has      17339 integration points.
  Task    18 has      17401 integration points.
  Task    19 has      17362 integration points.
  Task    20 has      17469 integration points.
  Task    21 has      17379 integration points.
  Task    22 has      17510 integration points.
  Task    23 has      17353 integration points.
  Task    24 has      17469 integration points.
  Task    25 has      17401 integration points.
  Task    26 has      17502 integration points.
  Task    27 has      17508 integration points.
  Task    28 has      17436 integration points.
  Task    29 has      17323 integration points.
  Task    30 has      17448 integration points.
  Task    31 has      17467 integration points.
  Task    32 has      17471 integration points.
  Task    33 has      17323 integration points.
  Task    34 has      17463 integration points.
  Task    35 has      17505 integration points.
  Task    36 has      17349 integration points.
  Task    37 has      17324 integration points.
  Task    38 has      17470 integration points.
  Task    39 has      17342 integration points.
  Task    40 has      17442 integration points.
  Task    41 has      17404 integration points.
  Task    42 has      17507 integration points.
  Task    43 has      17393 integration points.
  Task    44 has      17458 integration points.
  Task    45 has      17352 integration points.
  Task    46 has      17413 integration points.
  Task    47 has      17329 integration points.
  Task    48 has      17352 integration points.
  Task    49 has      17466 integration points.
  Task    50 has      17322 integration points.
  Task    51 has      17330 integration points.
  Task    52 has      17326 integration points.
  Task    53 has      17505 integration points.
  Task    54 has      17355 integration points.
  Task    55 has      17475 integration points.
  Task    56 has      17342 integration points.
  Task    57 has      17504 integration points.
  Task    58 has      17400 integration points.
  Task    59 has      17471 integration points.
  Task    60 has      17445 integration points.
  Task    61 has      17439 integration points.
  Task    62 has      17379 integration points.
  Task    63 has      17354 integration points.
  Available memory per node after partition_grid [GB]:    227.59
  Initializing partition tables, free-atom densities, potentials, etc. across the integration grid (initialize_grid_storage).
  | initialize_grid_storage: Actual outermost partition radius vs. multipole_radius_free
  | (-- VB: in principle, multipole_radius_free should be larger, hence this output)
  | Species        1: Confinement radius =              6.000000000000000 AA, multipole_radius_free =              6.029870734432609 AA.
  | Species        1: outer_partition_radius set to              6.029870734432609 AA .
  | Species        2: Confinement radius =              6.000000000000000 AA, multipole_radius_free =              6.064445521808699 AA.
  | Species        2: outer_partition_radius set to              6.064445521808699 AA .
  | Species        3: Confinement radius =              6.000000000000000 AA, multipole_radius_free =              6.071692442739658 AA.
  | Species        3: outer_partition_radius set to              6.071692442739658 AA .
  | The sparse table of interatomic distances needs         53.11 kbyte instead of        39.20 kbyte of memory.
  | Using the partition_type stratmann_smoother will reduce your memory usage.
  | Net number of integration points:  1114068
  | of which are non-zero points    :   858901
  Available memory per node after initialize_grid_storage_p1 [GB]:    227.47
  Renormalizing the initial density to the exact electron count on the 3D integration grid.
  | Initial density: Formal number of electrons (from input files) :     208.0000000000
  | Integrated number of electrons on 3D grid     :     208.0001170789
  | Charge integration error                      :       0.0001170789
  | Normalization factor for density and gradient :       0.9999994371
  Renormalizing the free-atom superposition density to the exact electron count on the 3D integration grid.
  | Formal number of electrons (from input files) :     208.0000000000
  | Integrated number of electrons on 3D grid     :     208.0001170789
  | Charge integration error                      :       0.0001170789
  | Normalization factor for density and gradient :       0.9999994371
  Obtaining max. number of non-zero basis functions in each batch (get_n_compute_maxes).
  | Maximal number of non-zero basis functions:      611 in task     0
  | Maximal number of non-zero basis functions:      611 in task     1
  | Maximal number of non-zero basis functions:      607 in task     2
  | Maximal number of non-zero basis functions:      612 in task     3
  | Maximal number of non-zero basis functions:      611 in task     4
  | Maximal number of non-zero basis functions:      610 in task     5
  | Maximal number of non-zero basis functions:      618 in task     6
  | Maximal number of non-zero basis functions:      607 in task     7
  | Maximal number of non-zero basis functions:      617 in task     8
  | Maximal number of non-zero basis functions:      620 in task     9
  | Maximal number of non-zero basis functions:      610 in task    10
  | Maximal number of non-zero basis functions:      609 in task    11
  | Maximal number of non-zero basis functions:      602 in task    12
  | Maximal number of non-zero basis functions:      612 in task    13
  | Maximal number of non-zero basis functions:      603 in task    14
  | Maximal number of non-zero basis functions:      607 in task    15
  | Maximal number of non-zero basis functions:      611 in task    16
  | Maximal number of non-zero basis functions:      604 in task    17
  | Maximal number of non-zero basis functions:      611 in task    18
  | Maximal number of non-zero basis functions:      611 in task    19
  | Maximal number of non-zero basis functions:      611 in task    20
  | Maximal number of non-zero basis functions:      616 in task    21
  | Maximal number of non-zero basis functions:      610 in task    22
  | Maximal number of non-zero basis functions:      608 in task    23
  | Maximal number of non-zero basis functions:      608 in task    24
  | Maximal number of non-zero basis functions:      612 in task    25
  | Maximal number of non-zero basis functions:      622 in task    26
  | Maximal number of non-zero basis functions:      606 in task    27
  | Maximal number of non-zero basis functions:      606 in task    28
  | Maximal number of non-zero basis functions:      614 in task    29
  | Maximal number of non-zero basis functions:      604 in task    30
  | Maximal number of non-zero basis functions:      612 in task    31
  | Maximal number of non-zero basis functions:      606 in task    32
  | Maximal number of non-zero basis functions:      622 in task    33
  | Maximal number of non-zero basis functions:      610 in task    34
  | Maximal number of non-zero basis functions:      615 in task    35
  | Maximal number of non-zero basis functions:      613 in task    36
  | Maximal number of non-zero basis functions:      607 in task    37
  | Maximal number of non-zero basis functions:      600 in task    38
  | Maximal number of non-zero basis functions:      608 in task    39
  | Maximal number of non-zero basis functions:      603 in task    40
  | Maximal number of non-zero basis functions:      609 in task    41
  | Maximal number of non-zero basis functions:      617 in task    42
  | Maximal number of non-zero basis functions:      611 in task    43
  | Maximal number of non-zero basis functions:      611 in task    44
  | Maximal number of non-zero basis functions:      618 in task    45
  | Maximal number of non-zero basis functions:      614 in task    46
  | Maximal number of non-zero basis functions:      613 in task    47
  | Maximal number of non-zero basis functions:      610 in task    48
  | Maximal number of non-zero basis functions:      604 in task    49
  | Maximal number of non-zero basis functions:      613 in task    50
  | Maximal number of non-zero basis functions:      608 in task    51
  | Maximal number of non-zero basis functions:      614 in task    52
  | Maximal number of non-zero basis functions:      606 in task    53
  | Maximal number of non-zero basis functions:      611 in task    54
  | Maximal number of non-zero basis functions:      618 in task    55
  | Maximal number of non-zero basis functions:      600 in task    56
  | Maximal number of non-zero basis functions:      602 in task    57
  | Maximal number of non-zero basis functions:      613 in task    58
  | Maximal number of non-zero basis functions:      613 in task    59
  | Maximal number of non-zero basis functions:      614 in task    60
  | Maximal number of non-zero basis functions:      615 in task    61
  | Maximal number of non-zero basis functions:      616 in task    62
  | Maximal number of non-zero basis functions:      609 in task    63
  Available memory per node after get_n_compute_maxes_p1 [GB]:    227.45
  Hamiltonian matrix size:
  | Size of matrix non-packed:               1401975
  | Size of matrix packed:          774281
  Available memory per node after allocate_matrices [GB]:    227.00
  Available memory per node after init_comm_sparse_local_matrix_scalapack [GB]:    227.00
  Integrating Hamiltonian matrix: batch-based integration.
  Time summed over all CPUs for integration: real work       35.113 s, elapsed       36.857 s
          Integrate hamiltonian matrix                 :  max(cpu_time)    wall_clock(cpu1)
          | Total time                                  :        0.595 s           0.595 s
  Available memory per node after integrate hamiltonian matrix [GB]:    226.60
  Integrating overlap matrix.
  Time summed over all CPUs for integration: real work       21.721 s, elapsed       22.854 s
  Available memory per node after integrate ovlp matrix [GB]:    225.99
  Deallocating overlap matrix.
  Available memory per node after save_overlap_scalapack [GB]:    226.32

  Updating Kohn-Sham eigenvalues and eigenvectors using ELSI and the ELPA eigensolver.
      Allocating      0.380 MB for copy
      Deallocating copy
  Overlap matrix is not singular
  | Lowest and highest eigenvalues :  0.1245E-03,  0.1301E+02
  Finished singularity check of overlap matrix
  | Time :     0.068 s
  Starting ELPA eigensolver
  Finished Cholesky decomposition
  | Time :     0.016 s
      Allocating      0.436 MB for tmp
      Deallocating tmp
  Finished transformation to standard eigenproblem
  | Time :     0.014 s
  Finished solving standard eigenproblem
  | Time :     0.076 s
      Allocating      0.380 MB for tmp
      Deallocating tmp
  Finished back-transformation of eigenvectors
  | Time :     0.003 s

  Obtaining occupation numbers and electronic chemical potential using ELSI.
  | Note that, for insulating systems, the printed 'chemical potential' value is not uniquely defined.
  | It can be anywhere in the energy gap, as long as it correctly separates occupied and unoccupied states.
  | In systems with a gap, the physically relevant chemical potential is the VBM or HOMO.

  | Chemical potential (Fermi level):    -7.68239850 eV
  Available memory per node after advance_KS_solution [GB]:    226.28
  Writing Kohn-Sham eigenvalues.

  State    Occupation    Eigenvalue [Ha]    Eigenvalue [eV]
      1       2.00000         -19.023408         -517.65326
      2       2.00000         -19.022751         -517.63539
      3       2.00000         -19.005098         -517.15502
      4       2.00000         -19.004945         -517.15085
      5       2.00000         -10.179745         -277.00496
      6       2.00000         -10.177923         -276.95537
      7       2.00000         -10.170600         -276.75611
      8       2.00000         -10.170479         -276.75281
      9       2.00000         -10.169787         -276.73399
     10       2.00000         -10.169782         -276.73384
     11       2.00000         -10.169763         -276.73333
[...]
     88       2.00000          -0.297046           -8.08302
     89       2.00000          -0.293336           -7.98207
     90       2.00000          -0.290285           -7.89905
     91       2.00000          -0.287459           -7.82215
     92       2.00000          -0.284857           -7.75135
     93       2.00000          -0.281800           -7.66816
     94       2.00000          -0.278113           -7.56784
     95       2.00000          -0.277208           -7.54322
     96       2.00000          -0.276145           -7.51428
     97       2.00000          -0.272301           -7.40970
     98       2.00000          -0.267640           -7.28286
     99       2.00000          -0.265322           -7.21977
    100       2.00000          -0.262803           -7.15124
    101       2.00000          -0.261896           -7.12656
    102       2.00000          -0.261601           -7.11853
    103       2.00000          -0.251992           -6.85704
    104       2.00000          -0.243248           -6.61910
    105       0.00000          -0.053512           -1.45614
    106       0.00000          -0.041868           -1.13927
    107       0.00000          -0.010158           -0.27642
    108       0.00000          -0.006650           -0.18095
    109       0.00000          -0.005083           -0.13831
    110       0.00000          -0.003184           -0.08664
    111       0.00000          -0.002764           -0.07521
    112       0.00000          -0.001620           -0.04408
    113       0.00000           0.002804            0.07629
    114       0.00000           0.003874            0.10541
    115       0.00000           0.004874            0.13262
    116       0.00000           0.012624            0.34351
    117       0.00000           0.014994            0.40801
    118       0.00000           0.015382            0.41858
    119       0.00000           0.026330            0.71648
    120       0.00000           0.027430            0.74642
    121       0.00000           0.029012            0.78946
    122       0.00000           0.038969            1.06041
    123       0.00000           0.040467            1.10117
    124       0.00000           0.042369            1.15293
    125       0.00000           0.043051            1.17148
    126       0.00000           0.044548            1.21221
    127       0.00000           0.045538            1.23914
    128       0.00000           0.046132            1.25531
    129       0.00000           0.048649            1.32381
    130       0.00000           0.052737            1.43504
    131       0.00000           0.053698            1.46121
    132       0.00000           0.060192            1.63789
    133       0.00000           0.060879            1.65660
    134       0.00000           0.064432            1.75328
    135       0.00000           0.067823            1.84555
    136       0.00000           0.070394            1.91551
    137       0.00000           0.073035            1.98739
    138       0.00000           0.079108            2.15264
    139       0.00000           0.081540            2.21882
    140       0.00000           0.085384            2.32342
    141       0.00000           0.086174            2.34490
    142       0.00000           0.091556            2.49136
    143       0.00000           0.096328            2.62123
    144       0.00000           0.098880            2.69067
    145       0.00000           0.104363            2.83986
    146       0.00000           0.106355            2.89406
    147       0.00000           0.108204            2.94439
    148       0.00000           0.112553            3.06272
    149       0.00000           0.113133            3.07852
    150       0.00000           0.115041            3.13042
    151       0.00000           0.117967            3.21005
    152       0.00000           0.120632            3.28256
    153       0.00000           0.125135            3.40510
    154       0.00000           0.126844            3.45160
    155       0.00000           0.129029            3.51106
    156       0.00000           0.133100            3.62184
    157       0.00000           0.135585            3.68945
    158       0.00000           0.138555            3.77027
    159       0.00000           0.139140            3.78619
    160       0.00000           0.141478            3.84981
    161       0.00000           0.141603            3.85321
    162       0.00000           0.145352            3.95524
    163       0.00000           0.148405            4.03831
    164       0.00000           0.151181            4.11385
    165       0.00000           0.153677            4.18176
    166       0.00000           0.155588            4.23375
    167       0.00000           0.157541            4.28690
    168       0.00000           0.160062            4.35550
    169       0.00000           0.162205            4.41383
    170       0.00000           0.165659            4.50782
    171       0.00000           0.168728            4.59133
    172       0.00000           0.170184            4.63094
    173       0.00000           0.171663            4.67119
    174       0.00000           0.174064            4.73651
    175       0.00000           0.175430            4.77369
    176       0.00000           0.176412            4.80042
    177       0.00000           0.177635            4.83370
    178       0.00000           0.179310            4.87927
    179       0.00000           0.180436            4.90991
    180       0.00000           0.181955            4.95126
    181       0.00000           0.184010            5.00718
    182       0.00000           0.189029            5.14375
    183       0.00000           0.190332            5.17919
    184       0.00000           0.192155            5.22879
    185       0.00000           0.193588            5.26778
    186       0.00000           0.199301            5.42326
    187       0.00000           0.202964            5.52292
    188       0.00000           0.204022            5.55171
    189       0.00000           0.206438            5.61746
    190       0.00000           0.207200            5.63819
    191       0.00000           0.211964            5.76783
    192       0.00000           0.213294            5.80401
    193       0.00000           0.214658            5.84113
    194       0.00000           0.216740            5.89779
    195       0.00000           0.218797            5.95376
    196       0.00000           0.220663            6.00455
    197       0.00000           0.222152            6.04506
    198       0.00000           0.223753            6.08862
    199       0.00000           0.226195            6.15507
    200       0.00000           0.228152            6.20834
    201       0.00000           0.232110            6.31603
    202       0.00000           0.233362            6.35009
    203       0.00000           0.234399            6.37831
    204       0.00000           0.237022            6.44970
    205       0.00000           0.237916            6.47404
    206       0.00000           0.241251            6.56477
    207       0.00000           0.241549            6.57288
    208       0.00000           0.242857            6.60848
    209       0.00000           0.243972            6.63882
    210       0.00000           0.246911            6.71879
    211       0.00000           0.247685            6.73985
    212       0.00000           0.250202            6.80835
    213       0.00000           0.251696            6.84900
    214       0.00000           0.252184            6.86229
    215       0.00000           0.255044            6.94010
    216       0.00000           0.255586            6.95486
    217       0.00000           0.256085            6.96844
    218       0.00000           0.258940            7.04612
    219       0.00000           0.259973            7.07421
    220       0.00000           0.261513            7.11614
    221       0.00000           0.264667            7.20196
    222       0.00000           0.266757            7.25882
    223       0.00000           0.268294            7.30066
    224       0.00000           0.271205            7.37986
    225       0.00000           0.274234            7.46228
    226       0.00000           0.278832            7.58740
    227       0.00000           0.279747            7.61231
    228       0.00000           0.283188            7.70593
    229       0.00000           0.284882            7.75204
    230       0.00000           0.287819            7.83194
    231       0.00000           0.291767            7.93938
    232       0.00000           0.293454            7.98529
    233       0.00000           0.294302            8.00836
    234       0.00000           0.297268            8.08908
    235       0.00000           0.299142            8.14007
    236       0.00000           0.303396            8.25583
    237       0.00000           0.306918            8.35167
    238       0.00000           0.307136            8.35759
    239       0.00000           0.309649            8.42599
    240       0.00000           0.310956            8.46155
    241       0.00000           0.312663            8.50799
    242       0.00000           0.314462            8.55696
    243       0.00000           0.316015            8.59921
    244       0.00000           0.322059            8.76368
    245       0.00000           0.325295            8.85174
    246       0.00000           0.327186            8.90318
    247       0.00000           0.331002            9.00703
    248       0.00000           0.338298            9.20555

  Highest occupied state (VBM) at     -6.61910396 eV
  | Occupation number:      2.00000000

  Lowest unoccupied state (CBM) at    -1.45613508 eV
  | Occupation number:      0.00000000

  Overall HOMO-LUMO gap:      5.16296888 eV.

  | Chemical Potential                          :    -4.03761952 eV
  | Note that, for insulating systems, the printed 'chemical potential' value is not uniquely defined.
  | It can be anywhere in the energy gap, as long as it correctly separates occupied and unoccupied states.
  | In systems with a gap, the physically relevant chemical potential is the VBM or HOMO.

  Self-consistency cycle converged.


------------------------------------------------------------
  End self-consistency iteration #    14       :  max(cpu_time)    wall_clock(cpu1)
  | Time for this iteration                     :        2.508 s           2.506 s
  | Charge density update                       :        0.000 s           0.000 s
  | Density mixing                              :        0.022 s           0.018 s
  | Hartree multipole update                    :        0.006 s           0.007 s
  | Hartree multipole summation                 :        0.266 s           0.266 s
  | Integration                                 :        0.591 s           0.591 s
  | Solution of K.-S. eqns.                     :        0.102 s           0.102 s
  | Total energy evaluation                     :        0.000 s           0.000 s

  Partial memory accounting:
  | Current value for overall tracked memory usage:
  |   Minimum:       21.616 MB (on task 50)
  |   Maximum:       21.789 MB (on task  7)
  |   Average:       21.686 MB
  | Peak value for overall tracked memory usage:
  |   Minimum:       52.230 MB (on task 56 after allocating wave)
  |   Maximum:       53.075 MB (on task 26 after allocating wave)
  |   Average:       52.613 MB
  | Largest tracked array allocation so far:
  |   Minimum:        5.907 MB (all_coords on task  0)
  |   Maximum:        7.600 MB (all_coords on task 22)
  |   Average:        5.934 MB
  Note:  These values currently only include a subset of arrays which are explicitly tracked.
  The "true" memory usage will be greater.
------------------------------------------------------------

  Energy and forces in a compact form:
  | Total energy uncorrected      :         -0.317211457304873E+05 eV
  | Total energy corrected        :         -0.317211457304873E+05 eV  <-- do not rely on this value for anything but (periodic) metals
  | Electronic free energy        :         -0.317211457304873E+05 eV

  ------------------------------------ 
  Start decomposition of the XC Energy 
  ------------------------------------ 
  X and C from original XC functional choice 
  Hartree-Fock Energy :          0.000000000 Ha              0.000000000 eV
  X Energy            :       -162.004543855 Ha          -4408.367933593 eV
  C Energy            :         -6.824852401 Ha           -185.713682843 eV
  XC Energy w/o HF    :       -168.829396256 Ha          -4594.081616436 eV
  Total XC Energy     :       -168.829396256 Ha          -4594.081616436 eV
  ------------------------------------ 
  LDA X and C from self-consistent density 
  X Energy LDA        :       -146.842694536 Ha          -3995.793022032 eV
  C Energy LDA        :        -13.157005473 Ha           -358.020334786 eV
  ------------------------------------ 
  End decomposition of the XC Energy 
  ------------------------------------ 

------------------------------------------------------------

------------------------------------------------------------------------------
  Final output of selected total energy values:

  The following output summarizes some interesting total energy values
  at the end of a run (AFTER all relaxation, molecular dynamics, etc.).

  | Total energy of the DFT / Hartree-Fock s.c.f. calculation      :         -31721.145730487 eV
  | Final zero-broadening corrected energy (caution - metals only) :         -31721.145730487 eV
  | For reference only, the value of 1 Hartree used in FHI-aims is :             27.211384500 eV

  Before relying on these values, please be sure to understand exactly which
  total energy value is referred to by a given number. Different objects may
  all carry the same name 'total energy'. Definitions:

  Total energy of the DFT / Hartree-Fock s.c.f. calculation:
  | Note that this energy does not include ANY quantities calculated after the
  | s.c.f. cycle, in particular not ANY RPA, MP2, etc. many-body perturbation terms.

  Final zero-broadening corrected energy:
  | For metallic systems only, a broadening of the occupation numbers at the Fermi
  | level can be extrapolated back to zero broadening by an electron-gas inspired
  | formula. For all systems that are not real metals, this value can be
  | meaningless and should be avoided.

------------------------------------------------------------------------------
  Methods described in the following list of references were used in this FHI-aims run.
  If you publish the results, please make sure to cite these reference if they apply.
  FHI-aims is an academic code, and for our developers (often, Ph.D. students
  and postdocs), scientific credit in the community is essential.
  Thank you for helping us!

  For any use of FHI-aims, please cite:

    Volker Blum, Ralf Gehrke, Felix Hanke, Paula Havu, Ville Havu,
    Xinguo Ren, Karsten Reuter, and Matthias Scheffler
    'Ab initio molecular simulations with numeric atom-centered orbitals'
    Computer Physics Communications 180, 2175-2196 (2009)
    http://doi.org/10.1016/j.cpc.2009.06.022


  The ELSI infrastructure was used in your run to solve the Kohn-Sham electronic structure.
  Please check out https://wordpress.elsi-interchange.org to learn more.
  If scalability is important for your project, please acknowledge ELSI by citing:

    V. W-z. Yu, F. Corsetti, A. Garcia, W. P. Huhn, M. Jacquelin, W. Jia,
    B. Lange, L. Lin, J. Lu, W. Mi, A. Seifitokaldani, A. Vazquez-Mayagoitia,
    C. Yang, H. Yang, and V. Blum
    'ELSI: A unified software interface for Kohn-Sham electronic structure solvers'
    Computer Physics Communications 222, 267-285 (2018).
    http://doi.org/10.1016/j.cpc.2017.09.007


  For the real-space grid partitioning and parallelization used in this calculation, please cite:

    Ville Havu, Volker Blum, Paula Havu, and Matthias Scheffler,
    'Efficient O(N) integration for all-electron electronic structure calculation'
    'using numerically tabulated basis functions'
    Journal of Computational Physics 228, 8367-8379 (2009).
    http://doi.org/10.1016/j.jcp.2009.08.008


  The high-level electronic structure method used in your calculation
  employed our efficient localized resolution of identity for the Coulomb operator.
  Some calculations, especially large-scale hybrid density functional theory,
  are only possible thanks to this development. For this feature, please cite:

    Arvid Ihrig, Juergen Wieferink, Igor Ying Zhang, Matti Ropo, Xinguo Ren,
    Patrick Rinke, Matthias Scheffler, and Volker Blum,
    'Accurate localized resolution of identity approach for linear-scaling
    hybrid density functionals and for many-body perturbation theory'
    New Journal of Physics 117, 093020 (2015).
    http://doi.org/10.1088/1367-2630/17/9/093020

  Of course, there are many other important community references, e.g., those cited in the
  above references. Our list is limited to references that describe implementations in the
  FHI-aims code. The reason is purely practical (length of this list) - please credit others as well.
------------------------------------------------------------
Warnings summary:

At least    2 warnings were raised during execution.

------------------------------------------------------------
          Leaving FHI-aims.
          Date     :  20251111, Time     :  184146.927

          Computational steps:
          | Number of self-consistency cycles          :           14
          | Number of SCF (re)initializations          :            1

          Detailed time accounting                     :  max(cpu_time)    wall_clock(cpu1)
          | Total time                                  :       36.009 s          36.280 s
          | Preparation time                            :        0.160 s           0.163 s
          | Boundary condition initalization            :        0.009 s           0.008 s
          | Grid partitioning                           :        0.969 s           0.970 s
          | Preloading free-atom quantities on grid     :        0.292 s           0.293 s
          | Free-atom superposition energy              :        0.030 s           0.031 s
          | Total time for integrations                 :        9.310 s           9.311 s
          | Total time for solution of K.-S. equations  :        1.636 s           1.637 s
          | Total time for density update               :       17.949 s          17.946 s
          | Total time for mixing                       :        0.243 s           0.190 s
          | Total time for Hartree multipole update     :        0.094 s           0.098 s
          | Total time for Hartree multipole sum        :        3.674 s           3.673 s
          | Total time for total energy evaluation      :        0.002 s           0.001 s
          | Total time for scaled ZORA corrections      :        0.000 s           0.000 s

          Partial memory accounting:
          | Residual value for overall tracked memory usage across tasks:     0.000000 MB (should be 0.000000 MB)
          | Peak values for overall tracked memory usage:
          |   Minimum:       52.230 MB (on task 56 after allocating wave)
          |   Maximum:       53.075 MB (on task 26 after allocating wave)
          |   Average:       52.613 MB
          | Largest tracked array allocation:
          |   Minimum:        5.907 MB (all_coords on task  0)
          |   Maximum:        7.600 MB (all_coords on task 22)
          |   Average:        5.934 MB
          Note:  These values currently only include a subset of arrays which are explicitly tracked.
          The "true" memory usage will be greater.

          Have a nice day.
------------------------------------------------------------
