------------------------------------------------------------
          Invoking FHI-aims ...

          When using FHI-aims, please cite the following reference:

            Volker Blum, Ralf Gehrke, Felix Hanke, Paula Havu,
            Ville Havu, Xinguo Ren, Karsten Reuter, and Matthias Scheffler,
            'Ab Initio Molecular Simulations with Numeric Atom-Centered Orbitals',
            Computer Physics Communications 180, 2175-2196 (2009)

          In addition, many other developments in FHI-aims are likely important for
          your particular application. If so, please cite them. A partial list of references
          is written at the end of this file. Thank you for giving credit to the authors
          of these developments.

          For general information about FHI-aims please find us at

            https://fhi-aims.org

          Online tutorials can be found at

            https://fhi-aims-club.gitlab.io/tutorials/tutorials-overview/

          For any questions about FHI-aims, please visit our slack channel at

            https://fhi-aims.slack.com

          and our main development and support site at

            https://aims-git.rz-berlin.mpg.de .

          The latter site, in particular, has a wiki to collect information, as well
          as an issue tracker to log discussions, suggest improvements, and report issues
          or bugs. https://aims-git.rz-berlin.mpg.de is also the main development site
          of the project and all new and updated code versions can be obtained there.
          Please send an email to aims-coordinators@fhi-berlin.mpg.de and we will add
          you to these sites. They are for you and everyone is welcome there.

------------------------------------------------------------



  Date     :  20250629, Time     :  125351.141
  Time zero on CPU 1             :   0.207540616000000E+03  s.
  Internal wall clock time zero  :           520433631.141  s.

  FHI-aims created a unique identifier for this run for later identification
  aims_uuid : A550E025-BF82-4E7D-ACE0-425E65645FE4

  Build configuration of the current instance of FHI-aims
  -------------------------------------------------------
  FHI-aims version      : 250403
  Commit number         : 316072d87
  CMake host system     : Linux-5.14.21-150400.24.46_12.0.70-cray_shasta_c
  CMake version         : 3.20.4
  Fortran compiler      : /opt/cray/pe/craype/2.7.19/bin/ftn (GNU) version 11.2.0
  Fortran compiler flags: -O2 -fPIC -fallow-argument-mismatch -ffree-line-length-none
  C compiler            : /opt/cray/pe/craype/2.7.19/bin/cc (GNU) version 11.2.0
  C compiler flags      : -O2
  C++ compiler          : /opt/cray/pe/gcc/11.2.0/bin/c++ (GNU) version 11.2.0
  C++ compiler flags    : -O2
  HIP compiler          :
  HIP compiler flags    :
  HIP GPU arch          :
  Using MPI
  Using ScaLAPACK
  Using LibXC
  Using i-PI
  Using RLSY
  Linking against:

  Using      256 parallel tasks.
  Task        0 on host nid001238 reporting.
  Task        1 on host nid001238 reporting.
  Task        2 on host nid001238 reporting.
  Task        3 on host nid001238 reporting.
  Task        4 on host nid001238 reporting.
  Task        5 on host nid001238 reporting.
  Task        6 on host nid001238 reporting.
  Task        7 on host nid001238 reporting.
  Task        8 on host nid001238 reporting.
  Task        9 on host nid001238 reporting.
  Task       10 on host nid001238 reporting.
  Task       11 on host nid001238 reporting.
  Task       12 on host nid001238 reporting.
  Task       13 on host nid001238 reporting.
  Task       14 on host nid001238 reporting.
  Task       15 on host nid001238 reporting.
  Task       16 on host nid001238 reporting.
  Task       17 on host nid001238 reporting.
  Task       18 on host nid001238 reporting.
  Task       19 on host nid001238 reporting.
  Task       20 on host nid001238 reporting.
  Task       21 on host nid001238 reporting.
  Task       22 on host nid001238 reporting.
  Task       23 on host nid001238 reporting.
  Task       24 on host nid001238 reporting.
  Task       25 on host nid001238 reporting.
  Task       26 on host nid001238 reporting.
  Task       27 on host nid001238 reporting.
  Task       28 on host nid001238 reporting.
  Task       29 on host nid001238 reporting.
  Task       30 on host nid001238 reporting.
  Task       31 on host nid001238 reporting.
  Task       32 on host nid001238 reporting.
  Task       33 on host nid001238 reporting.
  Task       34 on host nid001238 reporting.
  Task       35 on host nid001238 reporting.
  Task       36 on host nid001238 reporting.
  Task       37 on host nid001238 reporting.
  Task       38 on host nid001238 reporting.
  Task       39 on host nid001238 reporting.
  Task       40 on host nid001238 reporting.
  Task       41 on host nid001238 reporting.
  Task       42 on host nid001238 reporting.
  Task       43 on host nid001238 reporting.
  Task       44 on host nid001238 reporting.
  Task       45 on host nid001238 reporting.
  Task       46 on host nid001238 reporting.
  Task       47 on host nid001238 reporting.
  Task       48 on host nid001238 reporting.
  Task       49 on host nid001238 reporting.
  Task       50 on host nid001238 reporting.
  Task       51 on host nid001238 reporting.
  Task       52 on host nid001238 reporting.
  Task       53 on host nid001238 reporting.
  Task       54 on host nid001238 reporting.
  Task       55 on host nid001238 reporting.
  Task       56 on host nid001238 reporting.
  Task       57 on host nid001238 reporting.
  Task       58 on host nid001238 reporting.
  Task       59 on host nid001238 reporting.
  Task       60 on host nid001238 reporting.
  Task       61 on host nid001238 reporting.
  Task       62 on host nid001238 reporting.
  Task       63 on host nid001238 reporting.
  Task       64 on host nid001238 reporting.
  Task       65 on host nid001238 reporting.
  Task       66 on host nid001238 reporting.
  Task       67 on host nid001238 reporting.
  Task       68 on host nid001238 reporting.
  Task       69 on host nid001238 reporting.
  Task       70 on host nid001238 reporting.
  Task       71 on host nid001238 reporting.
  Task       72 on host nid001238 reporting.
  Task       73 on host nid001238 reporting.
  Task       74 on host nid001238 reporting.
  Task       75 on host nid001238 reporting.
  Task       76 on host nid001238 reporting.
  Task       77 on host nid001238 reporting.
  Task       78 on host nid001238 reporting.
  Task       79 on host nid001238 reporting.
  Task       80 on host nid001238 reporting.
  Task       81 on host nid001238 reporting.
  Task       82 on host nid001238 reporting.
  Task       83 on host nid001238 reporting.
  Task       84 on host nid001238 reporting.
  Task       85 on host nid001238 reporting.
  Task       86 on host nid001238 reporting.
  Task       87 on host nid001238 reporting.
  Task       88 on host nid001238 reporting.
  Task       89 on host nid001238 reporting.
  Task       90 on host nid001238 reporting.
  Task       91 on host nid001238 reporting.
  Task       92 on host nid001238 reporting.
  Task       93 on host nid001238 reporting.
  Task       94 on host nid001238 reporting.
  Task       95 on host nid001238 reporting.
  Task       96 on host nid001238 reporting.
  Task       97 on host nid001238 reporting.
  Task       98 on host nid001238 reporting.
  Task       99 on host nid001238 reporting.
  Task      100 on host nid001238 reporting.
  Task      101 on host nid001238 reporting.
  Task      102 on host nid001238 reporting.
  Task      103 on host nid001238 reporting.
  Task      104 on host nid001238 reporting.
  Task      105 on host nid001238 reporting.
  Task      106 on host nid001238 reporting.
  Task      107 on host nid001238 reporting.
  Task      108 on host nid001238 reporting.
  Task      109 on host nid001238 reporting.
  Task      110 on host nid001238 reporting.
  Task      111 on host nid001238 reporting.
  Task      112 on host nid001238 reporting.
  Task      113 on host nid001238 reporting.
  Task      114 on host nid001238 reporting.
  Task      115 on host nid001238 reporting.
  Task      116 on host nid001238 reporting.
  Task      117 on host nid001238 reporting.
  Task      118 on host nid001238 reporting.
  Task      119 on host nid001238 reporting.
  Task      120 on host nid001238 reporting.
  Task      121 on host nid001238 reporting.
  Task      122 on host nid001238 reporting.
  Task      123 on host nid001238 reporting.
  Task      124 on host nid001238 reporting.
  Task      125 on host nid001238 reporting.
  Task      126 on host nid001238 reporting.
  Task      127 on host nid001238 reporting.
  Task      128 on host nid001239 reporting.
  Task      129 on host nid001239 reporting.
  Task      130 on host nid001239 reporting.
  Task      131 on host nid001239 reporting.
  Task      132 on host nid001239 reporting.
  Task      133 on host nid001239 reporting.
  Task      134 on host nid001239 reporting.
  Task      135 on host nid001239 reporting.
  Task      136 on host nid001239 reporting.
  Task      137 on host nid001239 reporting.
  Task      138 on host nid001239 reporting.
  Task      139 on host nid001239 reporting.
  Task      140 on host nid001239 reporting.
  Task      141 on host nid001239 reporting.
  Task      142 on host nid001239 reporting.
  Task      143 on host nid001239 reporting.
  Task      144 on host nid001239 reporting.
  Task      145 on host nid001239 reporting.
  Task      146 on host nid001239 reporting.
  Task      147 on host nid001239 reporting.
  Task      148 on host nid001239 reporting.
  Task      149 on host nid001239 reporting.
  Task      150 on host nid001239 reporting.
  Task      151 on host nid001239 reporting.
  Task      152 on host nid001239 reporting.
  Task      153 on host nid001239 reporting.
  Task      154 on host nid001239 reporting.
  Task      155 on host nid001239 reporting.
  Task      156 on host nid001239 reporting.
  Task      157 on host nid001239 reporting.
  Task      158 on host nid001239 reporting.
  Task      159 on host nid001239 reporting.
  Task      160 on host nid001239 reporting.
  Task      161 on host nid001239 reporting.
  Task      162 on host nid001239 reporting.
  Task      163 on host nid001239 reporting.
  Task      164 on host nid001239 reporting.
  Task      165 on host nid001239 reporting.
  Task      166 on host nid001239 reporting.
  Task      167 on host nid001239 reporting.
  Task      168 on host nid001239 reporting.
  Task      169 on host nid001239 reporting.
  Task      170 on host nid001239 reporting.
  Task      171 on host nid001239 reporting.
  Task      172 on host nid001239 reporting.
  Task      173 on host nid001239 reporting.
  Task      174 on host nid001239 reporting.
  Task      175 on host nid001239 reporting.
  Task      176 on host nid001239 reporting.
  Task      177 on host nid001239 reporting.
  Task      178 on host nid001239 reporting.
  Task      179 on host nid001239 reporting.
  Task      180 on host nid001239 reporting.
  Task      181 on host nid001239 reporting.
  Task      182 on host nid001239 reporting.
  Task      183 on host nid001239 reporting.
  Task      184 on host nid001239 reporting.
  Task      185 on host nid001239 reporting.
  Task      186 on host nid001239 reporting.
  Task      187 on host nid001239 reporting.
  Task      188 on host nid001239 reporting.
  Task      189 on host nid001239 reporting.
  Task      190 on host nid001239 reporting.
  Task      191 on host nid001239 reporting.
  Task      192 on host nid001239 reporting.
  Task      193 on host nid001239 reporting.
  Task      194 on host nid001239 reporting.
  Task      195 on host nid001239 reporting.
  Task      196 on host nid001239 reporting.
  Task      197 on host nid001239 reporting.
  Task      198 on host nid001239 reporting.
  Task      199 on host nid001239 reporting.
  Task      200 on host nid001239 reporting.
  Task      201 on host nid001239 reporting.
  Task      202 on host nid001239 reporting.
  Task      203 on host nid001239 reporting.
  Task      204 on host nid001239 reporting.
  Task      205 on host nid001239 reporting.
  Task      206 on host nid001239 reporting.
  Task      207 on host nid001239 reporting.
  Task      208 on host nid001239 reporting.
  Task      209 on host nid001239 reporting.
  Task      210 on host nid001239 reporting.
  Task      211 on host nid001239 reporting.
  Task      212 on host nid001239 reporting.
  Task      213 on host nid001239 reporting.
  Task      214 on host nid001239 reporting.
  Task      215 on host nid001239 reporting.
  Task      216 on host nid001239 reporting.
  Task      217 on host nid001239 reporting.
  Task      218 on host nid001239 reporting.
  Task      219 on host nid001239 reporting.
  Task      220 on host nid001239 reporting.
  Task      221 on host nid001239 reporting.
  Task      222 on host nid001239 reporting.
  Task      223 on host nid001239 reporting.
  Task      224 on host nid001239 reporting.
  Task      225 on host nid001239 reporting.
  Task      226 on host nid001239 reporting.
  Task      227 on host nid001239 reporting.
  Task      228 on host nid001239 reporting.
  Task      229 on host nid001239 reporting.
  Task      230 on host nid001239 reporting.
  Task      231 on host nid001239 reporting.
  Task      232 on host nid001239 reporting.
  Task      233 on host nid001239 reporting.
  Task      234 on host nid001239 reporting.
  Task      235 on host nid001239 reporting.
  Task      236 on host nid001239 reporting.
  Task      237 on host nid001239 reporting.
  Task      238 on host nid001239 reporting.
  Task      239 on host nid001239 reporting.
  Task      240 on host nid001239 reporting.
  Task      241 on host nid001239 reporting.
  Task      242 on host nid001239 reporting.
  Task      243 on host nid001239 reporting.
  Task      244 on host nid001239 reporting.
  Task      245 on host nid001239 reporting.
  Task      246 on host nid001239 reporting.
  Task      247 on host nid001239 reporting.
  Task      248 on host nid001239 reporting.
  Task      249 on host nid001239 reporting.
  Task      250 on host nid001239 reporting.
  Task      251 on host nid001239 reporting.
  Task      252 on host nid001239 reporting.
  Task      253 on host nid001239 reporting.
  Task      254 on host nid001239 reporting.
  Task      255 on host nid001239 reporting.

  Obtaining array dimensions for all initial allocations:
  
  -----------------------------------------------------------------------
  Parsing control.in (first pass over file, find array dimensions only).
  The contents of control.in will be repeated verbatim below
  unless switched off by setting 'verbatim_writeout .false.' .
  in the first line of control.in .
  -----------------------------------------------------------------------
  
  #===============================================================================
  # Created using the Atomic Simulation Environment (ASE)
  
  # Sun Jun 29 12:53:51 2025
  
  #===============================================================================
  xc                                 PBE0
  relativistic                       atomic_zora scalar
  occupation_type                    gaussian 0.01
  mixer                              pulay
  KS_method                          parallel
  RI_method                          LVL
  n_max_pulay                        10
  collect_eigenvectors               .true.
  density_update_method              density_matrix
  lmo_pm_charge_metric               mulliken
  atomic_solver_xc                   PBE
  basis_threshold                    1e-05
  override_illconditioning           .true.
  override_initial_charge_check      .true.
  frequency_points                   50
  use_2d_corr                        .false.
  qm_embedding_mo_localise           .true.
  qm_embedding_calc                  2
  charge_mix_param                   0.0
  sc_iter_limit                      0
  charge                             -2.0000000000000853
  #===============================================================================
  
  ################################################################################
  #
  #  FHI-aims code project
  # Igor Ying Zhang and Xinguo Ren, Fritz Haber Institute Berlin, 2012
  #
  #  Suggested "NAO-VCC-4Z" defaults for C atom (to be pasted into control.in file)
  #
  #  Please cite:
  #
  #  Igor Ying Zhang, Xinguo Ren, Patrick Rinke, Volker Blum, and Matthias Scheffler,
  #  "Numeric atom-centered-orbital basis sets with valence-correlation consistency from H to Ar"
  #  New Journal of Physics 15, 123033 (2013).
  #  http://dx.doi.org/10.1088/1367-2630/15/12/123033
  #
  ################################################################################
    species        C
  #     set basis set reference for FHI-aims output
      cite_reference NAO-VCC-2013
  #     global species definitions
      nucleus             6
      mass                12.0107
  #
      l_hartree           6
  #
      cut_pot             4.0  2.0  1.0
      basis_dep_cutoff    0e-4
  #
      radial_base         34 7.0
      radial_multiplier   2
      angular_grids       specified
        division   0.2187   50
        division   0.4416  110
        division   0.6335  194
        division   0.7727  302
        division   0.8772  434
        division   0.9334  590
  #      division   0.9924  770
  #      division   1.0230  974
  #      division   1.5020 1202
  #      outer_grid  974
        outer_grid  770
  #      outer_grid  434
  ################################################################################
  #
  #  Definition of "minimal" basis
  #
  ################################################################################
  #     valence basis states
      valence      2  s   2.
      valence      2  p   2.
  #     ion occupancy
      ion_occ      2  s   1.
      ion_occ      2  p   1.
  ################################################################################
  
   basis_acc              1e-04
  #============================================
  # Optimization in      C for       NAO-VCC-4Z
  #============================================
  # (sp) correlation set
   hydro     1     s      1.59552887
   hydro     1     s      3.22975008
   hydro     1     s      6.53782314
   hydro     2     p      1.88700333
   hydro     2     p      4.55825829
   hydro     2     p     11.01096026
  # polarization set
   hydro     3     d      5.23072384
   hydro     3     d      7.65256819
   hydro     3     d     11.19573537
   hydro     4     f     10.64515589
   hydro     4     f     10.80040634
   hydro     5     g     15.74137862
  # (sp) enhanced minimal set
   hydro     1     s     13.75313803
   hydro     1     s     25.85761452
   hydro     2     p     10.26613499
  ################################################################################
  #
  #  FHI-aims code project
  # Igor Ying Zhang and Xinguo Ren, Fritz Haber Institute Berlin, 2012
  #
  #  Suggested "NAO-VCC-4Z" defaults for O atom (to be pasted into control.in file)
  #
  #  Please cite:
  #
  #  Igor Ying Zhang, Xinguo Ren, Patrick Rinke, Volker Blum, and Matthias Scheffler,
  #  "Numeric atom-centered-orbital basis sets with valence-correlation consistency from H to Ar"
  #  New Journal of Physics 15, 123033 (2013).
  #  http://dx.doi.org/10.1088/1367-2630/15/12/123033
  #
  ################################################################################
    species        O
  #     set basis set reference for FHI-aims output
      cite_reference NAO-VCC-2013
  #     global species definitions
      nucleus             8
      mass                15.9994
  #
      l_hartree           6
  #
      cut_pot             4.0  2.0  1.0
      basis_dep_cutoff    0e-4
  #
      radial_base         36 7.0
      radial_multiplier   2
      angular_grids       specified
        division   0.1817   50
        division   0.3417  110
        division   0.4949  194
        division   0.6251  302
        division   0.8014  434
        division   0.8507  590
  #      division   0.8762  770
  #      division   0.9023  974
  #      division   1.2339 1202
  #      outer_grid 974
        outer_grid 770
  #      outer_grid  434
  ################################################################################
  #
  #  Definition of "minimal" basis
  #
  ################################################################################
  #     valence basis states
      valence      2  s   2.
      valence      2  p   4.
  #     ion occupancy
      ion_occ      2  s   1.
      ion_occ      2  p   3.
  ################################################################################
  
   basis_acc              1e-04
  #============================================
  # Optimization in      O for       NAO-VCC-4Z
  #============================================
  # (sp) correlation set
   hydro     1     s      1.97025429
   hydro     1     s      3.00715580
   hydro     1     s      4.58975577
   hydro     2     p      2.37547698
   hydro     2     p      4.13958594
   hydro     2     p      7.21378144
  # polarization set
   hydro     3     d      7.17199177
   hydro     3     d     10.00249673
   hydro     3     d     13.95009140
   hydro     4     f     13.01612808
   hydro     4     f     16.02897865
   hydro     5     g     21.81608270
  # (sp) enhanced minimal basis
   hydro     1     s      9.96117536
   hydro     1     s     15.55417882
   hydro     2     p      7.62429018
  ################################################################################
  #
  #  FHI-aims code project
  # Igor Ying Zhang and Xinguo Ren, Fritz Haber Institute Berlin, 2012
  #
  #  Suggested "NAO-VCC-4Z" defaults for H atom (to be pasted into control.in file)
  #
  #  Please cite:
  #
  #  Igor Ying Zhang, Xinguo Ren, Patrick Rinke, Volker Blum, and Matthias Scheffler,
  #  "Numeric atom-centered-orbital basis sets with valence-correlation consistency from H to Ar"
  #  New Journal of Physics 15, 123033 (2013).
  #  http://dx.doi.org/10.1088/1367-2630/15/12/123033
  #
  ################################################################################
    species        H
  #     set basis set reference for FHI-aims output
      cite_reference NAO-VCC-2013
  #     global species definitions
      nucleus             1
      mass                1.00794
  #
      l_hartree           6
  #
      cut_pot             4.0  2.0  1.0
      basis_dep_cutoff    0e-4
  #
      radial_base         24 7.0
      radial_multiplier   2
      angular_grids       specified
        division   0.1930   50
        division   0.3175  110
        division   0.4293  194
        division   0.5066  302
        division   0.5626  434
        division   0.5922  590
  #      division   0.6227  974
  #      division   0.6868 1202
        outer_grid  770
  #      outer_grid  434
  ################################################################################
  #
  #  Definition of "minimal" basis
  #
  ################################################################################
  #     valence basis states
      valence      1  s   1.
  #     ion occupancy
      ion_occ      1  s   0.5
  ################################################################################
  
  
   basis_acc              1e-04
  #============================================
  # Optimization in      H for       NAO-VCC-4Z
  #============================================
  # (sp) correlation set
   hydro     1     s      1.15655525
   hydro     1     s      1.68684502
   hydro     1     s      2.46027686
   hydro     2     p      2.92145897
   hydro     2     p      4.14501835
   hydro     2     p      5.88102632
  # polarization set
   hydro     3     d      6.41446874
   hydro     3     d      7.67536483
   hydro     4     f     10.80870049
  # (sp) enhanced minimal set
   hydro     1     s      3.58833335
  
  -----------------------------------------------------------------------
  Completed first pass over input file control.in .
  -----------------------------------------------------------------------
  
  
  -----------------------------------------------------------------------
  Parsing geometry.in (first pass over file, find array dimensions only).
  The contents of geometry.in will be repeated verbatim below
  unless switched off by setting 'verbatim_writeout .false.' .
  in the first line of geometry.in .
  -----------------------------------------------------------------------
  
  #===============================================================================
  # Created using the Atomic Simulation Environment (ASE)
  
  # Sun Jun 29 12:53:51 2025
  
  #=======================================================
  atom 1.4302314199999999 -0.7334767900000000 -0.2066021000000000 C
  qm_embedding_region 1
  atom 0.2724226300000000 0.1023363100000000 0.3381360400000000 C
  qm_embedding_region 1
  atom -1.0840986699999999 -0.3937203800000000 -0.1430605200000000 C
  qm_embedding_region 1
  atom -2.2419896399999999 0.4515698200000000 0.3739919600000000 C
  qm_embedding_region 1
  atom -3.4646016199999998 -0.1454949300000000 -0.0552007300000000 O
  qm_embedding_region 1
  atom 0.4003818300000000 1.1512275599999999 0.0345219800000000 H
  qm_embedding_region 1
  atom 1.2658718200000001 -1.7818424700000000 0.0705428900000000 H
  qm_embedding_region 1
  atom 1.4056018400000001 -0.6857438300000001 -1.3022875400000000 H
  qm_embedding_region 1
  atom -1.2111482700000000 -1.4373885399999999 0.1825042800000000 H
  qm_embedding_region 1
  atom -1.0964186700000000 -0.3981506000000000 -1.2435362599999999 H
  qm_embedding_region 1
  atom -2.1620294300000000 1.4727407900000000 -0.0278133700000000 H
  qm_embedding_region 1
  atom 0.2826015500000000 0.0838933300000000 1.4372865300000000 H
  qm_embedding_region 1
  atom -4.5689247899999996 -5.4397207300000003 1.7433153400000001 C
  qm_embedding_region 1
  atom -4.9447976200000001 -6.3895239899999998 2.8815860899999999 C
  qm_embedding_region 1
  atom -4.1896353800000004 0.4699188800000000 0.1319741300000000 H
  qm_embedding_region 1
  atom -2.2082694200000001 0.4903184600000000 1.4739695600000000 H
  qm_embedding_region 1
  atom -4.2535942499999999 -3.7521138500000002 3.0373312900000000 H
  qm_embedding_region 1
  atom -5.1672109199999996 -5.6798084500000003 0.8526411400000000 H
  qm_embedding_region 1
  atom -3.5150274399999999 -5.5961320199999998 1.4721294500000000 H
  qm_embedding_region 1
  atom -6.0040426199999999 -6.2421081999999997 3.1224893699999998 H
  qm_embedding_region 1
  atom -4.2734860000000001 -3.0275456400000000 0.9967403700000000 C
  qm_embedding_region 1
  atom -4.7738726199999997 -3.9732622100000001 2.0937187399999999 C
  qm_embedding_region 1
  atom -4.3595134599999996 -1.7049052300000000 1.4432162799999999 O
  qm_embedding_region 1
  atom -4.3709652500000002 -6.1047659400000001 3.7718493500000001 H
  qm_embedding_region 1
  atom -3.9924159399999999 -1.1090525200000001 0.7498436300000000 H
  qm_embedding_region 1
  atom -4.8928751699999999 -3.1732709600000000 0.0951177300000000 H
  qm_embedding_region 1
  atom -3.2297188399999999 -3.2888903300000001 0.7496481500000000 H
  qm_embedding_region 1
  atom -5.8461641899999996 -3.7893040700000000 2.2593167599999999 H
  qm_embedding_region 1
  empty 2.9402252700000000 0.7999170700000000 0.1257432900000000 H
  qm_embedding_region 2
  empty 2.7874366699999999 -0.2687726500000000 0.3061688300000000 C
  qm_embedding_region 2
  empty 3.5860774499999999 -0.8139424800000000 -0.2020248900000000 H
  qm_embedding_region 2
  empty 2.8873768599999998 -0.4520145700000000 1.3809581799999999 H
  qm_embedding_region 2
  empty -5.2952672999999999 -8.1754948600000006 1.6906695100000000 H
  qm_embedding_region 2
  empty -4.9300196999999999 -8.4848734300000004 3.3940723899999998 H
  qm_embedding_region 2
  empty -3.6319166200000002 -8.0147405999999997 2.2870404899999999 H
  qm_embedding_region 2
  empty -4.6845105499999997 -7.8507389900000000 2.5391040399999998 C
  qm_embedding_region 2
  
  -----------------------------------------------------------------------
  Completed first pass over input file geometry.in .
  -----------------------------------------------------------------------
  

  Basic array size parameters:
  | Number of species                 :        3
  | Number of atoms                   :       36
  | Max. basis fn. angular momentum   :        4
  | Max. atomic/ionic basis occupied n:        2
  | Max. number of basis fn. types    :        2
  | Max. radial fns per species/type  :       15
  | Max. logarithmic grid size        :     1301
  | Max. radial integration grid size :       73
  | Max. angular integration grid size:      770
  | Max. angular grid division number :        8
  | Radial grid for Hartree potential :     1301
  | Number of spin channels           :        1

  Definition of standardized fundamental physical constants in this FHI-aims run:
  | Using the set of values used in FHI-aims up to 2024, which combines values from
  | different CODATA sets - see constants.f90.
  | Use the 'codata' keyword in control.in to change this selection.

  Memory overcommitment is allowed on your operating system.

------------------------------------------------------------
          Reading file control.in.
------------------------------------------------------------
  XC: Using hybrid-PBE0 functionals.
  Scalar relativistic treatment of kinetic energy: on-site free-atom approximation to ZORA.
  Occupation type: Gaussian broadening, width =   0.100000E-01 eV.
  Using pulay charge density mixing.
  Kohn-Sham electronic structure solved by the ELSI library.
  The 'LVL' version of RI (resolution of identity) technique is used.
  ** This is a localized expansion of all basis function products.
     Its intended use are Hartree-Fock and hybrid functionals.
     For RPA, MP2, GW, etc., LVL is not yet as accurate. In those cases, check carefully.
  Pulay mixing - number of memorized iterations:   10
  MO localisation with PM objective function calculated with Mulliken charges
  Atomic Solver XC: Using user-defined functional for generating the minimal NAO basis functions.
  Note that only the following functionals are available: kli, pz-lda, pw-lda, vwn, vwn-gauss, pw91_gga, pbe, rpbe, revpbe, pbeint, blyp.
  Threshold for basis singularities:  0.1000E-04
  override_illconditioning: Explicitly overriding any built-in checks for an ill-conditioned overlap matrix.
** WARNING:
  ***  If you use this flag, you should really know what you are doing.
** END OF WARNING
** WARNING:
  *** DO NOT keep this flag set by default in all your control.in files.
** END OF WARNING
  Number of frequency points used for the self-energy calculation:     50
  Old 1D distribution for correlation code.
  Charge density mixing - mixing parameter:     0.0000
 * Warning: The chosen 'charge_mix_param' value is not between zero or one.
 * The value found in control.in will likely lead to no s.c.f. convergence: 
 charge_mix_param                   0.0                                                                                                                                                                                                                    
 * Please check. 
  Maximum number of s.-c. iterations  :     0
  Charged system requested: Charge =  -0.200000E+01.

  Reading configuration options for species C                   .
  | Found nuclear charge :   6.0000
  | Found atomic mass :    12.010700000000000      amu
  | Found l_max for Hartree potential  :   6
  | Found cutoff potl. onset [A], width [A], scale factor :    4.00000    2.00000    1.00000
  | Threshold for basis-dependent cutoff potential is   0.000000E+00
  | Found data for basic radial integration grid :    34 points, outermost radius =    7.000 A
  | Found multiplier for basic radial grid :   2
  | Found angular grid specification: user-specified.
  | Specified grid contains     7 separate shells.
  | Check grid settings after all constraints further below.
  | Found free-atom valence shell :  2 s   2.000
  | Found free-atom valence shell :  2 p   2.000
  | No ionic wave fns used. Skipping ion_occ.
  | No ionic wave fns used. Skipping ion_occ.
  | Found basis singularity cutoff : 0.1000E-03
  | Found hydrogenic basis function :  1 s   1.596
  | Found hydrogenic basis function :  1 s   3.230
  | Found hydrogenic basis function :  1 s   6.538
  | Found hydrogenic basis function :  2 p   1.887
  | Found hydrogenic basis function :  2 p   4.558
  | Found hydrogenic basis function :  2 p  11.011
  | Found hydrogenic basis function :  3 d   5.231
  | Found hydrogenic basis function :  3 d   7.653
  | Found hydrogenic basis function :  3 d  11.196
  | Found hydrogenic basis function :  4 f  10.645
  | Found hydrogenic basis function :  4 f  10.800
  | Found hydrogenic basis function :  5 g  15.741
  | Found hydrogenic basis function :  1 s  13.753
  | Found hydrogenic basis function :  1 s  25.858
  | Found hydrogenic basis function :  2 p  10.266
 | Encountered keyword species, ending the description of species C                   .
  Species C                   : Missing cutoff potential type.
  Defaulting to exp(1/x)/(1-x)^2 type cutoff potential.
  Species C : No 'logarithmic' tag. Using default grid for free atom:
  | Default logarithmic grid data [bohr] : 0.1000E-03 0.1000E+03 0.1012E+01
  Species C                   : Using default innermost maximum threshold i_radial=  2 for radial functions.
  Species C                   : Default cutoff onset for free atom density etc. : 0.40000000E+01 AA.
  Species C                   : Basic radial grid will be enhanced according to radial_multiplier =   2, to contain    69 grid points.

  Reading configuration options for species O                   .
  | Found nuclear charge :   8.0000
  | Found atomic mass :    15.999400000000000      amu
  | Found l_max for Hartree potential  :   6
  | Found cutoff potl. onset [A], width [A], scale factor :    4.00000    2.00000    1.00000
  | Threshold for basis-dependent cutoff potential is   0.000000E+00
  | Found data for basic radial integration grid :    36 points, outermost radius =    7.000 A
  | Found multiplier for basic radial grid :   2
  | Found angular grid specification: user-specified.
  | Specified grid contains     7 separate shells.
  | Check grid settings after all constraints further below.
  | Found free-atom valence shell :  2 s   2.000
  | Found free-atom valence shell :  2 p   4.000
  | No ionic wave fns used. Skipping ion_occ.
  | No ionic wave fns used. Skipping ion_occ.
  | Found basis singularity cutoff : 0.1000E-03
  | Found hydrogenic basis function :  1 s   1.970
  | Found hydrogenic basis function :  1 s   3.007
  | Found hydrogenic basis function :  1 s   4.590
  | Found hydrogenic basis function :  2 p   2.375
  | Found hydrogenic basis function :  2 p   4.140
  | Found hydrogenic basis function :  2 p   7.214
  | Found hydrogenic basis function :  3 d   7.172
  | Found hydrogenic basis function :  3 d  10.002
  | Found hydrogenic basis function :  3 d  13.950
  | Found hydrogenic basis function :  4 f  13.016
  | Found hydrogenic basis function :  4 f  16.029
  | Found hydrogenic basis function :  5 g  21.816
  | Found hydrogenic basis function :  1 s   9.961
  | Found hydrogenic basis function :  1 s  15.554
  | Found hydrogenic basis function :  2 p   7.624
 | Encountered keyword species, ending the description of species O                   .
  Species O                   : Missing cutoff potential type.
  Defaulting to exp(1/x)/(1-x)^2 type cutoff potential.
  Species O : No 'logarithmic' tag. Using default grid for free atom:
  | Default logarithmic grid data [bohr] : 0.1000E-03 0.1000E+03 0.1012E+01
  Species O                   : Using default innermost maximum threshold i_radial=  2 for radial functions.
  Species O                   : Default cutoff onset for free atom density etc. : 0.40000000E+01 AA.
  Species O                   : Basic radial grid will be enhanced according to radial_multiplier =   2, to contain    73 grid points.

  Reading configuration options for species H                   .
  | Found nuclear charge :   1.0000
  | Found atomic mass :    1.0079400000000001      amu
  | Found l_max for Hartree potential  :   6
  | Found cutoff potl. onset [A], width [A], scale factor :    4.00000    2.00000    1.00000
  | Threshold for basis-dependent cutoff potential is   0.000000E+00
  | Found data for basic radial integration grid :    24 points, outermost radius =    7.000 A
  | Found multiplier for basic radial grid :   2
  | Found angular grid specification: user-specified.
  | Specified grid contains     7 separate shells.
  | Check grid settings after all constraints further below.
  | Found free-atom valence shell :  1 s   1.000
  | No ionic wave fns used. Skipping ion_occ.
  | Found basis singularity cutoff : 0.1000E-03
  | Found hydrogenic basis function :  1 s   1.157
  | Found hydrogenic basis function :  1 s   1.687
  | Found hydrogenic basis function :  1 s   2.460
  | Found hydrogenic basis function :  2 p   2.921
  | Found hydrogenic basis function :  2 p   4.145
  | Found hydrogenic basis function :  2 p   5.881
  | Found hydrogenic basis function :  3 d   6.414
  | Found hydrogenic basis function :  3 d   7.675
  | Found hydrogenic basis function :  4 f  10.809
  | Found hydrogenic basis function :  1 s   3.588
  Species H                   : Missing cutoff potential type.
  Defaulting to exp(1/x)/(1-x)^2 type cutoff potential.
  Species H : No 'logarithmic' tag. Using default grid for free atom:
  | Default logarithmic grid data [bohr] : 0.1000E-03 0.1000E+03 0.1012E+01
  Species H                   : Using default innermost maximum threshold i_radial=  2 for radial functions.
  Species H                   : Default cutoff onset for free atom density etc. : 0.40000000E+01 AA.
  Species H                   : Basic radial grid will be enhanced according to radial_multiplier =   2, to contain    49 grid points.

  Finished reading input file 'control.in'.

------------------------------------------------------------


------------------------------------------------------------
          Reading geometry description geometry.in.
------------------------------------------------------------
  | The smallest distance between any two atoms is         0.96924844 AA.
  | The first atom of this pair is atom number                      5 .
  | The second atom of this pair is atom number                    15 .
  Input structure read successfully.
  The structure contains       36 atoms,  and a total of         84.000 electrons.

  Input geometry:
  | No unit cell requested.
  | Atomic structure:
  |       Atom                x [A]            y [A]            z [A]
  |    1: Species C             1.43023142       -0.73347679       -0.20660210
  |    2: Species C             0.27242263        0.10233631        0.33813604
  |    3: Species C            -1.08409867       -0.39372038       -0.14306052
  |    4: Species C            -2.24198964        0.45156982        0.37399196
  |    5: Species O            -3.46460162       -0.14549493       -0.05520073
  |    6: Species H             0.40038183        1.15122756        0.03452198
  |    7: Species H             1.26587182       -1.78184247        0.07054289
  |    8: Species H             1.40560184       -0.68574383       -1.30228754
  |    9: Species H            -1.21114827       -1.43738854        0.18250428
  |   10: Species H            -1.09641867       -0.39815060       -1.24353626
  |   11: Species H            -2.16202943        1.47274079       -0.02781337
  |   12: Species H             0.28260155        0.08389333        1.43728653
  |   13: Species C            -4.56892479       -5.43972073        1.74331534
  |   14: Species C            -4.94479762       -6.38952399        2.88158609
  |   15: Species H            -4.18963538        0.46991888        0.13197413
  |   16: Species H            -2.20826942        0.49031846        1.47396956
  |   17: Species H            -4.25359425       -3.75211385        3.03733129
  |   18: Species H            -5.16721092       -5.67980845        0.85264114
  |   19: Species H            -3.51502744       -5.59613202        1.47212945
  |   20: Species H            -6.00404262       -6.24210820        3.12248937
  |   21: Species C            -4.27348600       -3.02754564        0.99674037
  |   22: Species C            -4.77387262       -3.97326221        2.09371874
  |   23: Species O            -4.35951346       -1.70490523        1.44321628
  |   24: Species H            -4.37096525       -6.10476594        3.77184935
  |   25: Species H            -3.99241594       -1.10905252        0.74984363
  |   26: Species H            -4.89287517       -3.17327096        0.09511773
  |   27: Species H            -3.22971884       -3.28889033        0.74964815
  |   28: Species H            -5.84616419       -3.78930407        2.25931676
  |       Ghost               x [A]            y [A]            z [A]
  |   29: Species H         2.94022527        0.79991707        0.12574329
  |   30: Species C         2.78743667       -0.26877265        0.30616883
  |   31: Species H         3.58607745       -0.81394248       -0.20202489
  |   32: Species H         2.88737686       -0.45201457        1.38095818
  |   33: Species H        -5.29526730       -8.17549486        1.69066951
  |   34: Species H        -4.93001970       -8.48487343        3.39407239
  |   35: Species H        -3.63191662       -8.01474060        2.28704049
  |   36: Species C        -4.68451055       -7.85073899        2.53910404

  Slab Identifier: This is not a periodic structure.

  Finished reading input file 'geometry.in'.



  Consistency checks for stacksize environment parameter are next.

  | Maximum stacksize for task 0: unlimited
  | Maximum stacksize for task 1: unlimited
  | Maximum stacksize for task 2: unlimited
  | Maximum stacksize for task 3: unlimited
  | Maximum stacksize for task 4: unlimited
  | Maximum stacksize for task 5: unlimited
  | Maximum stacksize for task 6: unlimited
  | Maximum stacksize for task 7: unlimited
  | Maximum stacksize for task 8: unlimited
  | Maximum stacksize for task 9: unlimited
  | Maximum stacksize for task 10: unlimited
  | Maximum stacksize for task 11: unlimited
  | Maximum stacksize for task 12: unlimited
  | Maximum stacksize for task 13: unlimited
  | Maximum stacksize for task 14: unlimited
  | Maximum stacksize for task 15: unlimited
  | Maximum stacksize for task 16: unlimited
  | Maximum stacksize for task 17: unlimited
  | Maximum stacksize for task 18: unlimited
  | Maximum stacksize for task 19: unlimited
  | Maximum stacksize for task 20: unlimited
  | Maximum stacksize for task 21: unlimited
  | Maximum stacksize for task 22: unlimited
  | Maximum stacksize for task 23: unlimited
  | Maximum stacksize for task 24: unlimited
  | Maximum stacksize for task 25: unlimited
  | Maximum stacksize for task 26: unlimited
  | Maximum stacksize for task 27: unlimited
  | Maximum stacksize for task 28: unlimited
  | Maximum stacksize for task 29: unlimited
  | Maximum stacksize for task 30: unlimited
  | Maximum stacksize for task 31: unlimited
  | Maximum stacksize for task 32: unlimited
  | Maximum stacksize for task 33: unlimited
  | Maximum stacksize for task 34: unlimited
  | Maximum stacksize for task 35: unlimited
  | Maximum stacksize for task 36: unlimited
  | Maximum stacksize for task 37: unlimited
  | Maximum stacksize for task 38: unlimited
  | Maximum stacksize for task 39: unlimited
  | Maximum stacksize for task 40: unlimited
  | Maximum stacksize for task 41: unlimited
  | Maximum stacksize for task 42: unlimited
  | Maximum stacksize for task 43: unlimited
  | Maximum stacksize for task 44: unlimited
  | Maximum stacksize for task 45: unlimited
  | Maximum stacksize for task 46: unlimited
  | Maximum stacksize for task 47: unlimited
  | Maximum stacksize for task 48: unlimited
  | Maximum stacksize for task 49: unlimited
  | Maximum stacksize for task 50: unlimited
  | Maximum stacksize for task 51: unlimited
  | Maximum stacksize for task 52: unlimited
  | Maximum stacksize for task 53: unlimited
  | Maximum stacksize for task 54: unlimited
  | Maximum stacksize for task 55: unlimited
  | Maximum stacksize for task 56: unlimited
  | Maximum stacksize for task 57: unlimited
  | Maximum stacksize for task 58: unlimited
  | Maximum stacksize for task 59: unlimited
  | Maximum stacksize for task 60: unlimited
  | Maximum stacksize for task 61: unlimited
  | Maximum stacksize for task 62: unlimited
  | Maximum stacksize for task 63: unlimited
  | Maximum stacksize for task 64: unlimited
  | Maximum stacksize for task 65: unlimited
  | Maximum stacksize for task 66: unlimited
  | Maximum stacksize for task 67: unlimited
  | Maximum stacksize for task 68: unlimited
  | Maximum stacksize for task 69: unlimited
  | Maximum stacksize for task 70: unlimited
  | Maximum stacksize for task 71: unlimited
  | Maximum stacksize for task 72: unlimited
  | Maximum stacksize for task 73: unlimited
  | Maximum stacksize for task 74: unlimited
  | Maximum stacksize for task 75: unlimited
  | Maximum stacksize for task 76: unlimited
  | Maximum stacksize for task 77: unlimited
  | Maximum stacksize for task 78: unlimited
  | Maximum stacksize for task 79: unlimited
  | Maximum stacksize for task 80: unlimited
  | Maximum stacksize for task 81: unlimited
  | Maximum stacksize for task 82: unlimited
  | Maximum stacksize for task 83: unlimited
  | Maximum stacksize for task 84: unlimited
  | Maximum stacksize for task 85: unlimited
  | Maximum stacksize for task 86: unlimited
  | Maximum stacksize for task 87: unlimited
  | Maximum stacksize for task 88: unlimited
  | Maximum stacksize for task 89: unlimited
  | Maximum stacksize for task 90: unlimited
  | Maximum stacksize for task 91: unlimited
  | Maximum stacksize for task 92: unlimited
  | Maximum stacksize for task 93: unlimited
  | Maximum stacksize for task 94: unlimited
  | Maximum stacksize for task 95: unlimited
  | Maximum stacksize for task 96: unlimited
  | Maximum stacksize for task 97: unlimited
  | Maximum stacksize for task 98: unlimited
  | Maximum stacksize for task 99: unlimited
  | Maximum stacksize for task 100: unlimited
  | Maximum stacksize for task 101: unlimited
  | Maximum stacksize for task 102: unlimited
  | Maximum stacksize for task 103: unlimited
  | Maximum stacksize for task 104: unlimited
  | Maximum stacksize for task 105: unlimited
  | Maximum stacksize for task 106: unlimited
  | Maximum stacksize for task 107: unlimited
  | Maximum stacksize for task 108: unlimited
  | Maximum stacksize for task 109: unlimited
  | Maximum stacksize for task 110: unlimited
  | Maximum stacksize for task 111: unlimited
  | Maximum stacksize for task 112: unlimited
  | Maximum stacksize for task 113: unlimited
  | Maximum stacksize for task 114: unlimited
  | Maximum stacksize for task 115: unlimited
  | Maximum stacksize for task 116: unlimited
  | Maximum stacksize for task 117: unlimited
  | Maximum stacksize for task 118: unlimited
  | Maximum stacksize for task 119: unlimited
  | Maximum stacksize for task 120: unlimited
  | Maximum stacksize for task 121: unlimited
  | Maximum stacksize for task 122: unlimited
  | Maximum stacksize for task 123: unlimited
  | Maximum stacksize for task 124: unlimited
  | Maximum stacksize for task 125: unlimited
  | Maximum stacksize for task 126: unlimited
  | Maximum stacksize for task 127: unlimited
  | Maximum stacksize for task 128: unlimited
  | Maximum stacksize for task 129: unlimited
  | Maximum stacksize for task 130: unlimited
  | Maximum stacksize for task 131: unlimited
  | Maximum stacksize for task 132: unlimited
  | Maximum stacksize for task 133: unlimited
  | Maximum stacksize for task 134: unlimited
  | Maximum stacksize for task 135: unlimited
  | Maximum stacksize for task 136: unlimited
  | Maximum stacksize for task 137: unlimited
  | Maximum stacksize for task 138: unlimited
  | Maximum stacksize for task 139: unlimited
  | Maximum stacksize for task 140: unlimited
  | Maximum stacksize for task 141: unlimited
  | Maximum stacksize for task 142: unlimited
  | Maximum stacksize for task 143: unlimited
  | Maximum stacksize for task 144: unlimited
  | Maximum stacksize for task 145: unlimited
  | Maximum stacksize for task 146: unlimited
  | Maximum stacksize for task 147: unlimited
  | Maximum stacksize for task 148: unlimited
  | Maximum stacksize for task 149: unlimited
  | Maximum stacksize for task 150: unlimited
  | Maximum stacksize for task 151: unlimited
  | Maximum stacksize for task 152: unlimited
  | Maximum stacksize for task 153: unlimited
  | Maximum stacksize for task 154: unlimited
  | Maximum stacksize for task 155: unlimited
  | Maximum stacksize for task 156: unlimited
  | Maximum stacksize for task 157: unlimited
  | Maximum stacksize for task 158: unlimited
  | Maximum stacksize for task 159: unlimited
  | Maximum stacksize for task 160: unlimited
  | Maximum stacksize for task 161: unlimited
  | Maximum stacksize for task 162: unlimited
  | Maximum stacksize for task 163: unlimited
  | Maximum stacksize for task 164: unlimited
  | Maximum stacksize for task 165: unlimited
  | Maximum stacksize for task 166: unlimited
  | Maximum stacksize for task 167: unlimited
  | Maximum stacksize for task 168: unlimited
  | Maximum stacksize for task 169: unlimited
  | Maximum stacksize for task 170: unlimited
  | Maximum stacksize for task 171: unlimited
  | Maximum stacksize for task 172: unlimited
  | Maximum stacksize for task 173: unlimited
  | Maximum stacksize for task 174: unlimited
  | Maximum stacksize for task 175: unlimited
  | Maximum stacksize for task 176: unlimited
  | Maximum stacksize for task 177: unlimited
  | Maximum stacksize for task 178: unlimited
  | Maximum stacksize for task 179: unlimited
  | Maximum stacksize for task 180: unlimited
  | Maximum stacksize for task 181: unlimited
  | Maximum stacksize for task 182: unlimited
  | Maximum stacksize for task 183: unlimited
  | Maximum stacksize for task 184: unlimited
  | Maximum stacksize for task 185: unlimited
  | Maximum stacksize for task 186: unlimited
  | Maximum stacksize for task 187: unlimited
  | Maximum stacksize for task 188: unlimited
  | Maximum stacksize for task 189: unlimited
  | Maximum stacksize for task 190: unlimited
  | Maximum stacksize for task 191: unlimited
  | Maximum stacksize for task 192: unlimited
  | Maximum stacksize for task 193: unlimited
  | Maximum stacksize for task 194: unlimited
  | Maximum stacksize for task 195: unlimited
  | Maximum stacksize for task 196: unlimited
  | Maximum stacksize for task 197: unlimited
  | Maximum stacksize for task 198: unlimited
  | Maximum stacksize for task 199: unlimited
  | Maximum stacksize for task 200: unlimited
  | Maximum stacksize for task 201: unlimited
  | Maximum stacksize for task 202: unlimited
  | Maximum stacksize for task 203: unlimited
  | Maximum stacksize for task 204: unlimited
  | Maximum stacksize for task 205: unlimited
  | Maximum stacksize for task 206: unlimited
  | Maximum stacksize for task 207: unlimited
  | Maximum stacksize for task 208: unlimited
  | Maximum stacksize for task 209: unlimited
  | Maximum stacksize for task 210: unlimited
  | Maximum stacksize for task 211: unlimited
  | Maximum stacksize for task 212: unlimited
  | Maximum stacksize for task 213: unlimited
  | Maximum stacksize for task 214: unlimited
  | Maximum stacksize for task 215: unlimited
  | Maximum stacksize for task 216: unlimited
  | Maximum stacksize for task 217: unlimited
  | Maximum stacksize for task 218: unlimited
  | Maximum stacksize for task 219: unlimited
  | Maximum stacksize for task 220: unlimited
  | Maximum stacksize for task 221: unlimited
  | Maximum stacksize for task 222: unlimited
  | Maximum stacksize for task 223: unlimited
  | Maximum stacksize for task 224: unlimited
  | Maximum stacksize for task 225: unlimited
  | Maximum stacksize for task 226: unlimited
  | Maximum stacksize for task 227: unlimited
  | Maximum stacksize for task 228: unlimited
  | Maximum stacksize for task 229: unlimited
  | Maximum stacksize for task 230: unlimited
  | Maximum stacksize for task 231: unlimited
  | Maximum stacksize for task 232: unlimited
  | Maximum stacksize for task 233: unlimited
  | Maximum stacksize for task 234: unlimited
  | Maximum stacksize for task 235: unlimited
  | Maximum stacksize for task 236: unlimited
  | Maximum stacksize for task 237: unlimited
  | Maximum stacksize for task 238: unlimited
  | Maximum stacksize for task 239: unlimited
  | Maximum stacksize for task 240: unlimited
  | Maximum stacksize for task 241: unlimited
  | Maximum stacksize for task 242: unlimited
  | Maximum stacksize for task 243: unlimited
  | Maximum stacksize for task 244: unlimited
  | Maximum stacksize for task 245: unlimited
  | Maximum stacksize for task 246: unlimited
  | Maximum stacksize for task 247: unlimited
  | Maximum stacksize for task 248: unlimited
  | Maximum stacksize for task 249: unlimited
  | Maximum stacksize for task 250: unlimited
  | Maximum stacksize for task 251: unlimited
  | Maximum stacksize for task 252: unlimited
  | Maximum stacksize for task 253: unlimited
  | Maximum stacksize for task 254: unlimited
  | Maximum stacksize for task 255: unlimited
  | Current stacksize for task 0: unlimited
  | Current stacksize for task 1: unlimited
  | Current stacksize for task 2: unlimited
  | Current stacksize for task 3: unlimited
  | Current stacksize for task 4: unlimited
  | Current stacksize for task 5: unlimited
  | Current stacksize for task 6: unlimited
  | Current stacksize for task 7: unlimited
  | Current stacksize for task 8: unlimited
  | Current stacksize for task 9: unlimited
  | Current stacksize for task 10: unlimited
  | Current stacksize for task 11: unlimited
  | Current stacksize for task 12: unlimited
  | Current stacksize for task 13: unlimited
  | Current stacksize for task 14: unlimited
  | Current stacksize for task 15: unlimited
  | Current stacksize for task 16: unlimited
  | Current stacksize for task 17: unlimited
  | Current stacksize for task 18: unlimited
  | Current stacksize for task 19: unlimited
  | Current stacksize for task 20: unlimited
  | Current stacksize for task 21: unlimited
  | Current stacksize for task 22: unlimited
  | Current stacksize for task 23: unlimited
  | Current stacksize for task 24: unlimited
  | Current stacksize for task 25: unlimited
  | Current stacksize for task 26: unlimited
  | Current stacksize for task 27: unlimited
  | Current stacksize for task 28: unlimited
  | Current stacksize for task 29: unlimited
  | Current stacksize for task 30: unlimited
  | Current stacksize for task 31: unlimited
  | Current stacksize for task 32: unlimited
  | Current stacksize for task 33: unlimited
  | Current stacksize for task 34: unlimited
  | Current stacksize for task 35: unlimited
  | Current stacksize for task 36: unlimited
  | Current stacksize for task 37: unlimited
  | Current stacksize for task 38: unlimited
  | Current stacksize for task 39: unlimited
  | Current stacksize for task 40: unlimited
  | Current stacksize for task 41: unlimited
  | Current stacksize for task 42: unlimited
  | Current stacksize for task 43: unlimited
  | Current stacksize for task 44: unlimited
  | Current stacksize for task 45: unlimited
  | Current stacksize for task 46: unlimited
  | Current stacksize for task 47: unlimited
  | Current stacksize for task 48: unlimited
  | Current stacksize for task 49: unlimited
  | Current stacksize for task 50: unlimited
  | Current stacksize for task 51: unlimited
  | Current stacksize for task 52: unlimited
  | Current stacksize for task 53: unlimited
  | Current stacksize for task 54: unlimited
  | Current stacksize for task 55: unlimited
  | Current stacksize for task 56: unlimited
  | Current stacksize for task 57: unlimited
  | Current stacksize for task 58: unlimited
  | Current stacksize for task 59: unlimited
  | Current stacksize for task 60: unlimited
  | Current stacksize for task 61: unlimited
  | Current stacksize for task 62: unlimited
  | Current stacksize for task 63: unlimited
  | Current stacksize for task 64: unlimited
  | Current stacksize for task 65: unlimited
  | Current stacksize for task 66: unlimited
  | Current stacksize for task 67: unlimited
  | Current stacksize for task 68: unlimited
  | Current stacksize for task 69: unlimited
  | Current stacksize for task 70: unlimited
  | Current stacksize for task 71: unlimited
  | Current stacksize for task 72: unlimited
  | Current stacksize for task 73: unlimited
  | Current stacksize for task 74: unlimited
  | Current stacksize for task 75: unlimited
  | Current stacksize for task 76: unlimited
  | Current stacksize for task 77: unlimited
  | Current stacksize for task 78: unlimited
  | Current stacksize for task 79: unlimited
  | Current stacksize for task 80: unlimited
  | Current stacksize for task 81: unlimited
  | Current stacksize for task 82: unlimited
  | Current stacksize for task 83: unlimited
  | Current stacksize for task 84: unlimited
  | Current stacksize for task 85: unlimited
  | Current stacksize for task 86: unlimited
  | Current stacksize for task 87: unlimited
  | Current stacksize for task 88: unlimited
  | Current stacksize for task 89: unlimited
  | Current stacksize for task 90: unlimited
  | Current stacksize for task 91: unlimited
  | Current stacksize for task 92: unlimited
  | Current stacksize for task 93: unlimited
  | Current stacksize for task 94: unlimited
  | Current stacksize for task 95: unlimited
  | Current stacksize for task 96: unlimited
  | Current stacksize for task 97: unlimited
  | Current stacksize for task 98: unlimited
  | Current stacksize for task 99: unlimited
  | Current stacksize for task 100: unlimited
  | Current stacksize for task 101: unlimited
  | Current stacksize for task 102: unlimited
  | Current stacksize for task 103: unlimited
  | Current stacksize for task 104: unlimited
  | Current stacksize for task 105: unlimited
  | Current stacksize for task 106: unlimited
  | Current stacksize for task 107: unlimited
  | Current stacksize for task 108: unlimited
  | Current stacksize for task 109: unlimited
  | Current stacksize for task 110: unlimited
  | Current stacksize for task 111: unlimited
  | Current stacksize for task 112: unlimited
  | Current stacksize for task 113: unlimited
  | Current stacksize for task 114: unlimited
  | Current stacksize for task 115: unlimited
  | Current stacksize for task 116: unlimited
  | Current stacksize for task 117: unlimited
  | Current stacksize for task 118: unlimited
  | Current stacksize for task 119: unlimited
  | Current stacksize for task 120: unlimited
  | Current stacksize for task 121: unlimited
  | Current stacksize for task 122: unlimited
  | Current stacksize for task 123: unlimited
  | Current stacksize for task 124: unlimited
  | Current stacksize for task 125: unlimited
  | Current stacksize for task 126: unlimited
  | Current stacksize for task 127: unlimited
  | Current stacksize for task 128: unlimited
  | Current stacksize for task 129: unlimited
  | Current stacksize for task 130: unlimited
  | Current stacksize for task 131: unlimited
  | Current stacksize for task 132: unlimited
  | Current stacksize for task 133: unlimited
  | Current stacksize for task 134: unlimited
  | Current stacksize for task 135: unlimited
  | Current stacksize for task 136: unlimited
  | Current stacksize for task 137: unlimited
  | Current stacksize for task 138: unlimited
  | Current stacksize for task 139: unlimited
  | Current stacksize for task 140: unlimited
  | Current stacksize for task 141: unlimited
  | Current stacksize for task 142: unlimited
  | Current stacksize for task 143: unlimited
  | Current stacksize for task 144: unlimited
  | Current stacksize for task 145: unlimited
  | Current stacksize for task 146: unlimited
  | Current stacksize for task 147: unlimited
  | Current stacksize for task 148: unlimited
  | Current stacksize for task 149: unlimited
  | Current stacksize for task 150: unlimited
  | Current stacksize for task 151: unlimited
  | Current stacksize for task 152: unlimited
  | Current stacksize for task 153: unlimited
  | Current stacksize for task 154: unlimited
  | Current stacksize for task 155: unlimited
  | Current stacksize for task 156: unlimited
  | Current stacksize for task 157: unlimited
  | Current stacksize for task 158: unlimited
  | Current stacksize for task 159: unlimited
  | Current stacksize for task 160: unlimited
  | Current stacksize for task 161: unlimited
  | Current stacksize for task 162: unlimited
  | Current stacksize for task 163: unlimited
  | Current stacksize for task 164: unlimited
  | Current stacksize for task 165: unlimited
  | Current stacksize for task 166: unlimited
  | Current stacksize for task 167: unlimited
  | Current stacksize for task 168: unlimited
  | Current stacksize for task 169: unlimited
  | Current stacksize for task 170: unlimited
  | Current stacksize for task 171: unlimited
  | Current stacksize for task 172: unlimited
  | Current stacksize for task 173: unlimited
  | Current stacksize for task 174: unlimited
  | Current stacksize for task 175: unlimited
  | Current stacksize for task 176: unlimited
  | Current stacksize for task 177: unlimited
  | Current stacksize for task 178: unlimited
  | Current stacksize for task 179: unlimited
  | Current stacksize for task 180: unlimited
  | Current stacksize for task 181: unlimited
  | Current stacksize for task 182: unlimited
  | Current stacksize for task 183: unlimited
  | Current stacksize for task 184: unlimited
  | Current stacksize for task 185: unlimited
  | Current stacksize for task 186: unlimited
  | Current stacksize for task 187: unlimited
  | Current stacksize for task 188: unlimited
  | Current stacksize for task 189: unlimited
  | Current stacksize for task 190: unlimited
  | Current stacksize for task 191: unlimited
  | Current stacksize for task 192: unlimited
  | Current stacksize for task 193: unlimited
  | Current stacksize for task 194: unlimited
  | Current stacksize for task 195: unlimited
  | Current stacksize for task 196: unlimited
  | Current stacksize for task 197: unlimited
  | Current stacksize for task 198: unlimited
  | Current stacksize for task 199: unlimited
  | Current stacksize for task 200: unlimited
  | Current stacksize for task 201: unlimited
  | Current stacksize for task 202: unlimited
  | Current stacksize for task 203: unlimited
  | Current stacksize for task 204: unlimited
  | Current stacksize for task 205: unlimited
  | Current stacksize for task 206: unlimited
  | Current stacksize for task 207: unlimited
  | Current stacksize for task 208: unlimited
  | Current stacksize for task 209: unlimited
  | Current stacksize for task 210: unlimited
  | Current stacksize for task 211: unlimited
  | Current stacksize for task 212: unlimited
  | Current stacksize for task 213: unlimited
  | Current stacksize for task 214: unlimited
  | Current stacksize for task 215: unlimited
  | Current stacksize for task 216: unlimited
  | Current stacksize for task 217: unlimited
  | Current stacksize for task 218: unlimited
  | Current stacksize for task 219: unlimited
  | Current stacksize for task 220: unlimited
  | Current stacksize for task 221: unlimited
  | Current stacksize for task 222: unlimited
  | Current stacksize for task 223: unlimited
  | Current stacksize for task 224: unlimited
  | Current stacksize for task 225: unlimited
  | Current stacksize for task 226: unlimited
  | Current stacksize for task 227: unlimited
  | Current stacksize for task 228: unlimited
  | Current stacksize for task 229: unlimited
  | Current stacksize for task 230: unlimited
  | Current stacksize for task 231: unlimited
  | Current stacksize for task 232: unlimited
  | Current stacksize for task 233: unlimited
  | Current stacksize for task 234: unlimited
  | Current stacksize for task 235: unlimited
  | Current stacksize for task 236: unlimited
  | Current stacksize for task 237: unlimited
  | Current stacksize for task 238: unlimited
  | Current stacksize for task 239: unlimited
  | Current stacksize for task 240: unlimited
  | Current stacksize for task 241: unlimited
  | Current stacksize for task 242: unlimited
  | Current stacksize for task 243: unlimited
  | Current stacksize for task 244: unlimited
  | Current stacksize for task 245: unlimited
  | Current stacksize for task 246: unlimited
  | Current stacksize for task 247: unlimited
  | Current stacksize for task 248: unlimited
  | Current stacksize for task 249: unlimited
  | Current stacksize for task 250: unlimited
  | Current stacksize for task 251: unlimited
  | Current stacksize for task 252: unlimited
  | Current stacksize for task 253: unlimited
  | Current stacksize for task 254: unlimited
  | Current stacksize for task 255: unlimited

  Consistency checks for the contents of control.in are next.

  MPI_IN_PLACE appears to work with this MPI implementation.
  | Keeping use_mpi_in_place .true. (see manual).
  Species C: Using default value for prodbas_acc =   1.000000E-04.
  Species C: Using default value max_l_prodbas =    20.
  Species O: Using default value for prodbas_acc =   1.000000E-04.
  Species O: Using default value max_l_prodbas =    20.
  Species H: Using default value for prodbas_acc =   1.000000E-04.
  Species H: Using default value max_l_prodbas =    20.
  Target number of points in a grid batch is not set. Defaulting to  100
  Method for grid partitioning is not set. Defaulting to parallel hash+maxmin partitioning.
  Batch size limit is not set. Defaulting to    200
  By default, will store active basis functions for each batch.
  If in need of memory, prune_basis_once .false. can be used to disable this option.
  communication_type for Hartree potential was not specified.
  Defaulting to calc_hartree .
  Pulay mixer: Number of initial linear mixing iterations not set.
  Defaulting to    0 iterations.
  Work space size for distributed Hartree potential not set.
  Defaulting to   0.200000E+03 MB.
  Algorithm-dependent basis array size parameters:
  | n_max_pulay                         :       10
  Presetting      1001 iterations before the initial mixing cycle
  is restarted anyway using the sc_init_iter criterion / keyword.
  Presetting a factor      1.000 between actual scf density residual
  and density convergence criterion sc_accuracy_rho below which sc_init_iter
  takes no effect.
 * No s.c.f. convergence criteria (sc_accuracy_*) were provided in control.in.
 * The run will proceed with a reasonable default guess, but please check whether.
 * the s.c.f. cycles seem to take too much or too little time.
  Calculation of forces was not defined in control.in. No forces will be calculated.
  Geometry relaxation not requested: no relaxation will be performed.
 * Notice: The s.c.f. convergence criterion sc_accuracy_rho was not provided.
 * We used to stop in this case, and ask the user to provide reasonable
 * scf convergence criteria. However, this led some users to employ criteria
 * that led to extremely long run times, e.g., for simple relaxation.
 * We now preset a default value for sc_accuracy_rho if it is not set.
 * You may still wish to check if this setting is too tight or too loose for your needs.
 * Based on n_atoms and forces and force-correction status, FHI-aims chose sc_accuracy_rho =  0.195959E-04 .
  No accuracy limit for integral partition fn. given. Defaulting to  0.1000E-14.
  No threshold value for u(r) in integrations given. Defaulting to  0.1000E-05.
  No accuracy for occupation numbers given. Defaulting to  0.1000E-12.
  No threshold value for occupation numbers given. Defaulting to  0.0000E+00.
  No accuracy for fermi level given. Defaulting to  0.1000E-19.
  Maximum # of iterations to find E_F not set. Defaulting to  200.
  Will not use alltoall communication since running on < 1024 CPUs.
  partition_type (choice of integration weights) for integrals was not specified.
  | Using a version of the partition function of Stratmann and coworkers ('stratmann_sparse').
  | At each grid point, the set of atoms used to build the partition table is smoothly restricted to
  | only those atoms whose free-atom density would be non-zero at that grid point.
  Partitioning for Hartree potential was not defined. Using partition_type for integrals.
  | Adjusted default value of keyword multip_moments_threshold to:       0.10000000E-11
  | This value may affect high angular momentum components of the Hartree potential in periodic systems.
  Spin handling was not defined in control.in. Defaulting to unpolarized case.
  Threshold for auxiliary basis singularities not set.
  Default threshold for auxiliary basis singularities:  0.1000E-04
  No q(lm)/r^(l+1) cutoff set for long-range Hartree potential.
  | Using default value of  0.100000E-09 .
  | Verify using the multipole_threshold keyword.
  Defaulting to new monopole extrapolation.
  Density update method: density matrix based density update selected.
  Scalapack and density-matrix based density update required:
  Switching to packed matrix format "index" by default.
  Coulomb operator: Defaulting to screening threshold for four-center integrals:   0.100000E-06
  Coulomb operator: Defaulting to screening threshold for Coulomb matrix:   0.100000E-09
  Fock matrix calculation: Setting the screening threshold for overlap matrix to coul_mat_threshold:   0.100000E-09
  Coulomb operator: Defaulting to logarithmic spherical Bessel transform integrals (use_logsbt .true.).
  Charge integration errors on the 3D integration grid will be compensated
  by explicit normalization and distribution of residual charges.
  Use the "compensate_multipole_errors" flag to change this behaviour.
  LVL not implemented with density matrix yet
  -> switching to transformed overlap
  LVL probably works better with logsbt
  Default to 1D ("use_logsbt") integrations for auxiliary 2-center integrals.
  Default onset of logarithmic r-grid for SBT is -38.000000000000
  Default onset of logarithmic k-grid for SBT is -25.000000000000
  Default range of logarithmic r- and k-grid for SBT is  45.000000000000
  Default number of logarithmic r- and k-grid for SBT is   4096
  Found no potential conflicts with setting 'use_local_index' for this calculation.
  Flag 'use_local_index' has not been set.
  Testing whether we classify this calculation as large-scale ...
  The calculation contains less than 100 atoms. This is most likely not a large-scale calculation.
  Not setting 'use_local_index'.

  Consistency checks for the contents of geometry.in are next.

 * Warning: Initial charge and total charge of the system are inconsistent.
 * Selected charge in control.in:    -2.0000
 * Sum of initial charges in geometry.in:     0.0000
  Number of empty states per atom not set in control.in - providing a guess from actual geometry.
  | Total number of empty states used during s.c.f. cycle:       57
  If you use a very high smearing, use empty_states (per atom!) in control.in to increase this value.

  Structure-dependent array size parameters: 
  | Maximum number of distinct radial functions  :       47
  | Maximum number of basis functions            :     1464
  | Number of Kohn-Sham states (occupied + empty):       99
------------------------------------------------------------
  After read_input_data [GB]:    163.42

  Performing system and environment tests:
  | Environment variable OMP_NUM_THREADS correctly set to 1.
  | Checking for ScaLAPACK...
  | Testing pdtran()...
  | All pdtran() tests passed.
  After prepare_system [GB]:    163.42

------------------------------------------------------------
          Preparing all fixed parts of the calculation.
------------------------------------------------------------
  Determining machine precision:
     2.2250738585072014E-308
  Setting up grids for atomic and cluster calculations.

  Creating wave function, potential, and density for free atoms.
  Runtime choices for atomic solver:
  | atomic solver xc        : PBE
  | compute density gradient: 1
  | compute kinetic density : F

  Species: C

  List of occupied orbitals and eigenvalues:
    n    l              occ      energy [Ha]    energy [eV]
    1    0           2.0000       -10.049212      -273.4530
    2    0           2.0000        -0.504761       -13.7352
    2    1           2.0000        -0.193631        -5.2690


  Species: O

  List of occupied orbitals and eigenvalues:
    n    l              occ      energy [Ha]    energy [eV]
    1    0           2.0000       -18.927378      -515.0401
    2    0           2.0000        -0.880539       -23.9607
    2    1           4.0000        -0.331811        -9.0290


  Species: H

  List of occupied orbitals and eigenvalues:
    n    l              occ      energy [Ha]    energy [eV]
    1    0           1.0000        -0.238386        -6.4868


  Adding cutoff potential to free-atom effective potential.
  Creating fixed part of basis set: Ionic, confined, hydrogenic.

  C                    hydrogenic:

  List of hydrogenic basis orbitals: 
    n    l      effective z      eigenvalue [eV]  inner max. [A]     outer max. [A]     outer radius [A]   
    1    0         1.595529       -34.6362           0.332673           0.332673           5.019603
    1    0         3.229750      -141.9249           0.163712           0.163712           2.931316
    1    0         6.537823      -581.5499           0.080565           0.080565           1.478240
    2    1         1.887003       -12.1063           1.115918           1.115918           5.401630
    2    1         4.558258       -70.6738           0.462772           0.462772           4.607917
    2    1        11.010960      -412.3928           0.191912           0.191912           2.006671
    3    2         5.230724       -41.3620           0.906516           0.906516           5.207114
    3    2         7.652568       -88.5304           0.620567           0.620567           4.607917
    3    2        11.195735      -189.4887           0.424817           0.424817           3.232486
    4    3        10.645156       -96.3618           0.792453           0.792453           4.780049
    4    3        10.800406       -99.1930           0.782825           0.782825           4.721969
    5    4        15.741379      -134.8547           0.842403           0.842403           4.496620
    1    0        13.753138     -2573.5004           0.038689           0.038689           0.718621
    1    0        25.857615     -9096.9866           0.020488           0.020488           0.389976
    2    1        10.266135      -358.4880           0.206518           0.206518           2.133155


  O                    hydrogenic:

  List of hydrogenic basis orbitals: 
    n    l      effective z      eigenvalue [eV]  inner max. [A]     outer max. [A]     outer radius [A]   
    1    0         1.970254       -52.8160           0.268494           0.268494           4.634338
    1    0         3.007156      -123.0361           0.175029           0.175029           3.133949
    1    0         4.589756      -286.6156           0.115504           0.115504           2.093567
    2    1         2.375477       -19.1936           0.889693           0.889693           5.366593
    2    1         4.139586       -58.2874           0.513244           0.513244           4.866590
    2    1         7.213781      -177.0054           0.292482           0.292482           3.021094
    3    2         7.171992       -77.7603           0.663465           0.663465           4.807458
    3    2        10.002497      -151.2499           0.476945           0.476945           3.629133
    3    2        13.950091      -294.1929           0.342862           0.342862           2.608875
    4    3        13.016128      -144.0669           0.647440           0.647440           4.051222
    4    3        16.028979      -218.4803           0.525948           0.525948           3.331488
    5    4        21.816083      -259.0205           0.609051           0.609051           3.291008
    1    0         9.961175     -1350.0250           0.052821           0.052821           0.981101
    1    0        15.554179     -3291.6589           0.034015           0.034015           0.639573
    2    1         7.624290      -197.7240           0.278524           0.278524           2.841960


  H                    hydrogenic:

  List of hydrogenic basis orbitals: 
    n    l      effective z      eigenvalue [eV]  inner max. [A]     outer max. [A]     outer radius [A]   
    1    0         1.156555       -18.1992           0.460320           0.460320           5.243229
    1    0         1.686845       -38.7143           0.315118           0.315118           4.932336
    1    0         2.460277       -82.3547           0.215718           0.215718           3.815562
    2    1         2.921459       -29.0309           0.723605           0.723605           5.243229
    2    1         4.145018       -58.4405           0.507614           0.507614           4.813203
    2    1         5.881026      -117.6432           0.360475           0.360475           3.678162
    3    2         6.414469       -62.2013           0.741515           0.741515           4.993004
    3    2         7.675365       -89.0587           0.617279           0.617279           4.583499
    4    3        10.808700       -99.3454           0.778676           0.778676           4.696947
    1    0         3.588333      -175.1887           0.147673           0.147673           2.644120

  Creating atomic-like basis functions for current effective potential.

  Species C                   :

  List of atomic basis orbitals and eigenvalues:
    n    l      energy [Ha]    energy [eV]    outer radius [A]
    1    0       -10.049212      -273.4530       1.934409
    2    0        -0.504761       -13.7352       5.271162
    2    1        -0.193631        -5.2690       5.401630


  Species O                   :

  List of atomic basis orbitals and eigenvalues:
    n    l      energy [Ha]    energy [eV]    outer radius [A]
    1    0       -18.927378      -515.0401       1.415765
    2    0        -0.880539       -23.9607       5.048385
    2    1        -0.331811        -9.0290       5.301386


  Species H                   :

  List of atomic basis orbitals and eigenvalues:
    n    l      energy [Ha]    energy [eV]    outer radius [A]
    1    0        -0.238386        -6.4868       5.373006

  Assembling full basis from fixed parts.
  | Species C :   atomic orbital   1 s accepted.
  | Species C :   atomic orbital   2 s accepted.
  | Species C :    hydro orbital   1 s accepted.
  | Species C :    hydro orbital   1 s accepted.
  | Species C :    hydro orbital   1 s accepted.
  | Species C :    hydro orbital   1 s accepted.
  | Species C :    hydro orbital   1 s accepted.
  | Species C :   atomic orbital   2 p accepted.
  | Species C :    hydro orbital   2 p accepted.
  | Species C :    hydro orbital   2 p accepted.
  | Species C :    hydro orbital   2 p accepted.
  | Species C :    hydro orbital   2 p accepted.
  | Species C :    hydro orbital   3 d accepted.
  | Species C :    hydro orbital   3 d accepted.
  | Species C :    hydro orbital   3 d accepted.
  | Species C :    hydro orbital   4 f accepted.
  | Species C :    hydro orbital   4 f accepted.
  | Species C :    hydro orbital   5 g accepted.
  | Species O :   atomic orbital   1 s accepted.
[...]
  | error in Hartree potential    :          -0.04035876 Ha          -1.09821785 eV
  | Sum of eigenvalues per atom                           :        -190.06068483 eV
  | Total energy (T->0) per atom                          :        -352.72719728 eV  <-- do not rely on this value for anything but (periodic) metals
  | Electronic free energy per atom                       :        -352.72719728 eV

  Self-consistency convergence accuracy:
  | Change of charge density      :  0.7042E+00
  | Change of unmixed KS density  :  0.2043E+02
  | Change of sum of eigenvalues  : -0.6842E+04 eV
  | Change of total energy        : -0.1270E+05 eV


  ------------------------------------------------------------
             Starting Unitary Localisation of CMOs
  ------------------------------------------------------------
 Exporting DM for embedding
  Evaluating density matrix
  Finished density matrix calculation
  | Time :     0.001 s
  Finished localisation of CMOs in           2.734 s

  ------------------------------------------------------------
            Completed Unitary Localisation of CMOs
  ------------------------------------------------------------

  Integrating Hamiltonian matrix: batch-based integration.
  Time summed over all CPUs for integration: real work      358.332 s, elapsed      384.576 s
  Writing Kohn-Sham eigenvalues.

  State    Occupation    Eigenvalue [Ha]    Eigenvalue [eV]
      1       2.00000         -19.119450         -520.26672
      2       2.00000         -19.009727         -517.28100
      3       2.00000         -10.126939         -275.56803
      4       2.00000         -10.065076         -273.88464
      5       2.00000         -10.028944         -272.90144
      6       2.00000          -9.993399         -271.93423
      7       2.00000          -9.945670         -270.63544
      8       2.00000          -9.916102         -269.83087
      9       2.00000          -9.706978         -264.14031
     10       2.00000          -9.688830         -263.64648
     11       2.00000          -0.945664          -25.73281
     12       2.00000          -0.837325          -22.78476
     13       2.00000          -0.618737          -16.83669
     14       2.00000          -0.565684          -15.39305
     15       2.00000          -0.504039          -13.71559
     16       2.00000          -0.451028          -12.27309
     17       2.00000          -0.415526          -11.30703
     18       2.00000          -0.380926          -10.36554
     19       2.00000          -0.367858          -10.00993
     20       2.00000          -0.358439           -9.75363
     21       2.00000          -0.311316           -8.47134
     22       2.00000          -0.288164           -7.84134
     23       2.00000          -0.274182           -7.46086
     24       2.00000          -0.260514           -7.08896
     25       2.00000          -0.250387           -6.81336
     26       2.00000          -0.224843           -6.11829
     27       2.00000          -0.201050           -5.47085
     28       2.00000          -0.189456           -5.15536
     29       2.00000          -0.183489           -4.99299
     30       2.00000          -0.169046           -4.59997
     31       2.00000          -0.140819           -3.83189
     32       2.00000          -0.123587           -3.36298
     33       2.00000          -0.115680           -3.14781
     34       2.00000          -0.102953           -2.80148
     35       2.00000          -0.094883           -2.58190
     36       2.00000          -0.078289           -2.13035
     37       2.00000          -0.019018           -0.51751
     38       2.00000          -0.005604           -0.15249
     39       2.00000           0.005348            0.14553
     40       2.00000           0.010554            0.28720
     41       2.00000           0.144256            3.92541
     42       2.00000           0.196629            5.35055
     43       0.00000           0.213510            5.80990
     44       0.00000           0.224785            6.11672
     45       0.00000           0.232952            6.33894
     46       0.00000           0.243762            6.63309
     47       0.00000           0.258576            7.03622
     48       0.00000           0.267246            7.27214
     49       0.00000           0.276153            7.51452
     50       0.00000           0.277201            7.54302
     51       0.00000           0.283549            7.71577
     52       0.00000           0.287340            7.81893
     53       0.00000           0.292720            7.96533
     54       0.00000           0.295537            8.04196
     55       0.00000           0.302501            8.23148
     56       0.00000           0.307295            8.36192
     57       0.00000           0.316446            8.61093
     58       0.00000           0.317432            8.63777
     59       0.00000           0.324611            8.83311
     60       0.00000           0.329159            8.95688
     61       0.00000           0.336601            9.15937
     62       0.00000           0.339734            9.24462
     63       0.00000           0.343726            9.35325
     64       0.00000           0.346804            9.43701
     65       0.00000           0.351265            9.55841
     66       0.00000           0.359886            9.79298
     67       0.00000           0.363342            9.88704
     68       0.00000           0.368441           10.02578
     69       0.00000           0.378092           10.28842
     70       0.00000           0.395247           10.75522
     71       0.00000           0.407834           11.09774
     72       0.00000           0.410135           11.16033
     73       0.00000           0.416367           11.32992
     74       0.00000           0.423703           11.52954
     75       0.00000           0.428956           11.67250
     76       0.00000           0.439762           11.96653
     77       0.00000           0.441105           12.00309
     78       0.00000           0.445869           12.13270
     79       0.00000           0.450514           12.25910
     80       0.00000           0.461520           12.55861
     81       0.00000           0.467590           12.72377
     82       0.00000           0.473058           12.87257
     83       0.00000           0.476916           12.97755
     84       0.00000           0.478225           13.01317
     85       0.00000           0.482518           13.13000
     86       0.00000           0.489809           13.32838
     87       0.00000           0.494950           13.46827
     88       0.00000           0.501387           13.64344
     89       0.00000           0.501900           13.65738
     90       0.00000           0.510053           13.87926
     91       0.00000           0.517705           14.08748
     92       0.00000           0.521169           14.18173
     93       0.00000           0.529647           14.41244
     94       0.00000           0.529809           14.41683
     95       0.00000           0.534489           14.54418
     96       0.00000           0.536894           14.60963
     97       0.00000           0.542506           14.76234
     98       0.00000           0.546631           14.87458
     99       0.00000           0.553057           15.04946

  Highest occupied state (VBM) at      5.35055357 eV
  | Occupation number:      2.00000000
 * WARNING: The VBM is higher than the internal energy zero!

  Lowest unoccupied state (CBM) at     5.80990448 eV
  | Occupation number:      0.00000000

  Overall HOMO-LUMO gap:      0.45935091 eV.

  | Chemical Potential                          :     5.58022902 eV
  | Note that, for insulating systems, the printed 'chemical potential' value is not uniquely defined.
  | It can be anywhere in the energy gap, as long as it correctly separates occupied and unoccupied states.
  | In systems with a gap, the physically relevant chemical potential is the VBM or HOMO.

  Self-consistency cycle converged.


------------------------------------------------------------
  End self-consistency iteration #     0       :  max(cpu_time)    wall_clock(cpu1)
  | Time for this iteration                     :       27.642 s          27.644 s
  | Charge density update                       :        0.000 s           0.000 s
  | Density mixing                              :        0.001 s           0.000 s
  | Hartree multipole update                    :        0.005 s           0.005 s
  | Hartree multipole summation                 :        0.119 s           0.119 s
  | Integration                                 :        1.067 s           1.067 s
  | Fock matrix evaluation                      :       22.895 s          22.896 s
  | Solution of K.-S. eqns.                     :        0.292 s           0.291 s
  | Total energy evaluation                     :        0.000 s           0.000 s

  Partial memory accounting:
  | Current value for overall tracked memory usage:
  |   Minimum:      119.212 MB (on task 119)
  |   Maximum:      202.666 MB (on task  14)
  |   Average:      171.871 MB
  | Peak value for overall tracked memory usage:
  |   Minimum:      183.386 MB (on task  23 after allocating wave)
  |   Maximum:      270.277 MB (on task  51 after allocating wave)
  |   Average:      238.308 MB
  | Largest tracked array allocation so far:
  |   Minimum:       92.709 MB (ovlp3fn2%dat on task  23)
  |   Maximum:      175.989 MB (ovlp3fn2%dat on task  14)
  |   Average:      145.075 MB
  Note:  These values currently only include a subset of arrays which are explicitly tracked.
  The "true" memory usage will be greater.
------------------------------------------------------------

  Energy and forces in a compact form:
  | Total energy uncorrected      :         -0.126981791022370E+05 eV
  | Total energy corrected        :         -0.126981791022370E+05 eV  <-- do not rely on this value for anything but (periodic) metals
  | Electronic free energy        :         -0.126981791022370E+05 eV

  ------------------------------------ 
  Start decomposition of the XC Energy 
  ------------------------------------ 
  X and C from original XC functional choice 
  Hartree-Fock Energy :        -16.280323961 Ha           -443.010155099 eV
  X Energy            :        -64.942370945 Ha          -1767.171826122 eV
  C Energy            :         -2.747393154 Ha            -74.760371474 eV
  XC Energy w/o HF    :        -51.409440137 Ha          -1398.922042497 eV
  Total XC Energy     :        -67.689764098 Ha          -1841.932197596 eV
  ------------------------------------ 
  LDA X and C from self-consistent density 
  X Energy LDA        :        -58.808694382 Ha          -1600.265994761 eV
  C Energy LDA        :         -5.294537556 Ha           -144.071697194 eV
  ------------------------------------ 
  End decomposition of the XC Energy 
  ------------------------------------ 

------------------------------------------------------------
------------------------------------------------------------

------------------------------------------------------------------------------
  Final output of selected total energy values:

  The following output summarizes some interesting total energy values
  at the end of a run (AFTER all relaxation, molecular dynamics, etc.).

  | Total energy of the DFT / Hartree-Fock s.c.f. calculation      :         -12698.179102237 eV
  | Final zero-broadening corrected energy (caution - metals only) :         -12698.179102237 eV
  | For reference only, the value of 1 Hartree used in FHI-aims is :             27.211384500 eV

  Before relying on these values, please be sure to understand exactly which
  total energy value is referred to by a given number. Different objects may
  all carry the same name 'total energy'. Definitions:

  Total energy of the DFT / Hartree-Fock s.c.f. calculation:
  | Note that this energy does not include ANY quantities calculated after the
  | s.c.f. cycle, in particular not ANY RPA, MP2, etc. many-body perturbation terms.

  Final zero-broadening corrected energy:
  | For metallic systems only, a broadening of the occupation numbers at the Fermi
  | level can be extrapolated back to zero broadening by an electron-gas inspired
  | formula. For all systems that are not real metals, this value can be
  | meaningless and should be avoided.

------------------------------------------------------------------------------
  Methods described in the following list of references were used in this FHI-aims run.
  If you publish the results, please make sure to cite these reference if they apply.
  FHI-aims is an academic code, and for our developers (often, Ph.D. students
  and postdocs), scientific credit in the community is essential.
  Thank you for helping us!

  For any use of FHI-aims, please cite:

    Volker Blum, Ralf Gehrke, Felix Hanke, Paula Havu, Ville Havu,
    Xinguo Ren, Karsten Reuter, and Matthias Scheffler
    'Ab initio molecular simulations with numeric atom-centered orbitals'
    Computer Physics Communications 180, 2175-2196 (2009)
    http://doi.org/10.1016/j.cpc.2009.06.022


  For the NAO-VCC-nZ basis sets used in this calculation, please cite:

    Igor Ying Zhang, Xinguo Ren, Patrick Rinke, Volker Blum, and Matthias Scheffler
    'Numeric atom-centered-orbital basis sets with valence-correlation consistency from H to Ar'
    New Journal of Physics 15, 123033 (2013).
    http://doi.org/10.1088/1367-2630/15/12/123033


  For Hartree-Fock, hybrid functionals, or many-body perturbation theory used in your run, please cite:

    Xinguo Ren, Patrick Rinke, Volker Blum, Juergen Wieferink, Alex Tkatchenko,
    Andrea Sanfilippo, Karsten Reuter, and Matthias Scheffler,
    'Resolution-of-identity approach to Hartree-Fock, hybrid density functionals,
    RPA, MP2, and GW with numeric atom-centered orbital basis functions'
    New Journal of Physics 14, 053020 (2012).
    http://doi.org/10.1088/1367-2630/14/5/053020


  For using hybrid functionals or Hartree-Fock in FHI-aims, please cite

    Sergey V. Levchenko, Xinguo Ren, Juergen Wieferink, Rainer Joahanni,
    Patrick Rinke, Volker Blum, and Matthias Scheffler
    Hybrid functionals for large periodic systems in an all-electron,
    numeric atom-centered basis framework

    Comput. Phys. Commun. 192, 60-69 (2015)
    https://doi.org/10.1016/j.cpc.2015.02.021


  For using hybrid functionals or Hartree-Fock in FHI-aims, please also cite

    Sebastian Kokott, Florian Merz, Yi Yao, Christian Carbogno, Mariana Rossi,
    Ville Havu, Markus Rampp, Matthias Scheffler, and Volker Blum
    Efficient all-electron hybrid density functionals for atomistic simulations
    beyond 10,000 atoms

    J. Chem. Phys. 161, 024112 (2024)
    https://doi.org/10.1063/5.0208103


  The ELSI infrastructure was used in your run to solve the Kohn-Sham electronic structure.
  Please check out https://wordpress.elsi-interchange.org to learn more.
  If scalability is important for your project, please acknowledge ELSI by citing:

    V. W-z. Yu, F. Corsetti, A. Garcia, W. P. Huhn, M. Jacquelin, W. Jia,
    B. Lange, L. Lin, J. Lu, W. Mi, A. Seifitokaldani, A. Vazquez-Mayagoitia,
    C. Yang, H. Yang, and V. Blum
    'ELSI: A unified software interface for Kohn-Sham electronic structure solvers'
    Computer Physics Communications 222, 267-285 (2018).
    http://doi.org/10.1016/j.cpc.2017.09.007


  For the real-space grid partitioning and parallelization used in this calculation, please cite:

    Ville Havu, Volker Blum, Paula Havu, and Matthias Scheffler,
    'Efficient O(N) integration for all-electron electronic structure calculation'
    'using numerically tabulated basis functions'
    Journal of Computational Physics 228, 8367-8379 (2009).
    http://doi.org/10.1016/j.jcp.2009.08.008


  The high-level electronic structure method used in your calculation
  employed our efficient localized resolution of identity for the Coulomb operator.
  Some calculations, especially large-scale hybrid density functional theory,
  are only possible thanks to this development. For this feature, please cite:

    Arvid Ihrig, Juergen Wieferink, Igor Ying Zhang, Matti Ropo, Xinguo Ren,
    Patrick Rinke, Matthias Scheffler, and Volker Blum,
    'Accurate localized resolution of identity approach for linear-scaling
    hybrid density functionals and for many-body perturbation theory'
    New Journal of Physics 117, 093020 (2015).
    http://doi.org/10.1088/1367-2630/17/9/093020

  Of course, there are many other important community references, e.g., those cited in the
  above references. Our list is limited to references that describe implementations in the
  FHI-aims code. The reason is purely practical (length of this list) - please credit others as well.
------------------------------------------------------------
Warnings summary:

At least    2 warnings were raised during execution.
** WARNING:
 * Warning: The chosen 'charge_mix_param' value was not between zero or one.
 * The value found in control.in should have caused s.c.f. convergence problems.
** END OF WARNING

------------------------------------------------------------
          Leaving FHI-aims.
          Date     :  20250714, Time     :  101349.177

          Computational steps:
          | Number of self-consistency cycles          :            0
          | Number of SCF (re)initializations          :            1

          Detailed time accounting                     :  max(cpu_time)    wall_clock(cpu1)
          | Total time                                  :       54.819 s          54.797 s
          | Preparation time                            :        0.253 s           0.252 s
          | Boundary condition initalization            :        0.010 s           0.010 s
          | Grid partitioning                           :        0.702 s           0.702 s
          | Preloading free-atom quantities on grid     :        0.154 s           0.154 s
          | Free-atom superposition energy              :        0.014 s           0.014 s
          | Total time for integrations                 :        2.960 s           2.959 s
          | Product basis setup: Total time             :       21.442 s          21.443 s
          | Total time evaluating exchange matrix       :       22.895 s          22.896 s
          | Total time for solution of K.-S. equations  :        0.292 s           0.292 s
          | Total time for density update               :        2.184 s           2.184 s
          | Total time for mixing                       :        0.001 s           0.000 s
          | Total time for Hartree multipole update     :        0.005 s           0.005 s
          | Total time for Hartree multipole sum        :        0.119 s           0.119 s
          | Total time for total energy evaluation      :        0.000 s           0.000 s
          | Total time for scaled ZORA corrections      :        0.000 s           0.000 s
          | Total time for Mulliken analysis            :        0.000 s           0.000 s

          Partial memory accounting:
          | Residual value for overall tracked memory usage across tasks:     0.000000 MB (should be 0.000000 MB)
          | Peak values for overall tracked memory usage:
          |   Minimum:      183.386 MB (on task  23 after allocating wave)
          |   Maximum:      270.277 MB (on task  51 after allocating wave)
          |   Average:      238.308 MB
          | Largest tracked array allocation:
          |   Minimum:       92.709 MB (ovlp3fn2%dat on task  23)
          |   Maximum:      175.989 MB (ovlp3fn2%dat on task  14)
          |   Average:      145.075 MB
          Note:  These values currently only include a subset of arrays which are explicitly tracked.
          The "true" memory usage will be greater.

          Have a nice day.
------------------------------------------------------------
