------------------------------------------------------------
          Invoking FHI-aims ...

          When using FHI-aims, please cite the following reference:

            Volker Blum, Ralf Gehrke, Felix Hanke, Paula Havu,
            Ville Havu, Xinguo Ren, Karsten Reuter, and Matthias Scheffler,
            'Ab Initio Molecular Simulations with Numeric Atom-Centered Orbitals',
            Computer Physics Communications 180, 2175-2196 (2009)

          In addition, many other developments in FHI-aims are likely important for
          your particular application. If so, please cite them. A partial list of references
          is written at the end of this file. Thank you for giving credit to the authors
          of these developments.

          For general information about FHI-aims please find us at

            https://fhi-aims.org

          Online tutorials can be found at

            https://fhi-aims-club.gitlab.io/tutorials/tutorials-overview/

          For any questions about FHI-aims, please visit our slack channel at

            https://fhi-aims.slack.com

          and our main development and support site at

            https://aims-git.rz-berlin.mpg.de .

          The latter site, in particular, has a wiki to collect information, as well
          as an issue tracker to log discussions, suggest improvements, and report issues
          or bugs. https://aims-git.rz-berlin.mpg.de is also the main development site
          of the project and all new and updated code versions can be obtained there.
          Please send an email to aims-coordinators@fhi-berlin.mpg.de and we will add
          you to these sites. They are for you and everyone is welcome there.

------------------------------------------------------------



  Date     :  20251111, Time     :  185115.788
  Time zero on CPU 1             :   0.886485200000000E+01  s.
  Internal wall clock time zero  :           532119075.788  s.

  FHI-aims created a unique identifier for this run for later identification
  aims_uuid : 1D20DD10-9F8B-43AB-A33C-CA81CB4ED702

  Build configuration of the current instance of FHI-aims
  -------------------------------------------------------
  FHI-aims version      : 251023
  Commit number         : 8c0f38015
  CMake host system     : Linux-3.10.0-1160.80.1.el7.x86_64
  CMake version         : 3.24.2
  OS Distribution       : CentOS Linux 7 (Core)
  Built on              : AMD EPYC 7502 32-Core Processor
  Fortran compiler      : /apps/compilers/intel/2018.2/compilers_and_libraries_2018/linux/mpi/intel64/bin/mpif90 (Intel) version 18.0.2.20180210
  Fortran compiler flags: -O3 -ip -fp-model precise
  C compiler            : /apps/compilers/intel/2018.2/compilers_and_libraries_2018/linux/mpi/intel64/bin/mpiicc (Intel) version 18.0.2.20180210
  C compiler flags      : -O3 -ip -fp-model precise -std=gnu99
  C++ compiler          : /apps/compilers/intel/2018.2/compilers_and_libraries_2018/linux/mpi/intel64/bin/mpiicpc (Intel) version 18.0.2.20180210
  C++ compiler flags    : -O3 -ip -fp-model precise
  HIP compiler          :
  HIP compiler flags    :
  HIP GPU arch          :
  ELPA2 kernel          : AVX2
  Using MPI
  Using ScaLAPACK
  Using LibXC
  Using i-PI
  Using RLSY
  Linking against: /apps/compilers/intel/2020.1/compilers_and_libraries_2020/linux/mkl/lib/intel64/libmkl_intel_lp64.so
                   /apps/compilers/intel/2020.1/compilers_and_libraries_2020/linux/mkl/lib/intel64/libmkl_intel_thread.so
                   /apps/compilers/intel/2020.1/compilers_and_libraries_2020/linux/mkl/lib/intel64/libmkl_core.so
                   /apps/compilers/intel/2020.1/compilers_and_libraries_2020/linux/mkl/lib/intel64/libmkl_blacs_intelmpi_lp64.so
                   /apps/compilers/intel/2020.1/compilers_and_libraries_2020/linux/mkl/lib/intel64/libmkl_scalapack_lp64.so
                   /usr/lib64/libpthread.so

  Using       64 parallel tasks.
  Task        0 on host cca9065 reporting.
  Task        1 on host cca9065 reporting.
  Task        2 on host cca9065 reporting.
  Task        3 on host cca9065 reporting.
  Task        4 on host cca9065 reporting.
  Task        5 on host cca9065 reporting.
  Task        6 on host cca9065 reporting.
  Task        7 on host cca9065 reporting.
  Task        8 on host cca9065 reporting.
  Task        9 on host cca9065 reporting.
  Task       10 on host cca9065 reporting.
  Task       11 on host cca9065 reporting.
  Task       12 on host cca9065 reporting.
  Task       13 on host cca9065 reporting.
  Task       14 on host cca9065 reporting.
  Task       15 on host cca9065 reporting.
  Task       16 on host cca9065 reporting.
  Task       17 on host cca9065 reporting.
  Task       18 on host cca9065 reporting.
  Task       19 on host cca9065 reporting.
  Task       20 on host cca9065 reporting.
  Task       21 on host cca9065 reporting.
  Task       22 on host cca9065 reporting.
  Task       23 on host cca9065 reporting.
  Task       24 on host cca9065 reporting.
  Task       25 on host cca9065 reporting.
  Task       26 on host cca9065 reporting.
  Task       27 on host cca9065 reporting.
  Task       28 on host cca9065 reporting.
  Task       29 on host cca9065 reporting.
  Task       30 on host cca9065 reporting.
  Task       31 on host cca9065 reporting.
  Task       32 on host cca9065 reporting.
  Task       33 on host cca9065 reporting.
  Task       34 on host cca9065 reporting.
  Task       35 on host cca9065 reporting.
  Task       36 on host cca9065 reporting.
  Task       37 on host cca9065 reporting.
  Task       38 on host cca9065 reporting.
  Task       39 on host cca9065 reporting.
  Task       40 on host cca9065 reporting.
  Task       41 on host cca9065 reporting.
  Task       42 on host cca9065 reporting.
  Task       43 on host cca9065 reporting.
  Task       44 on host cca9065 reporting.
  Task       45 on host cca9065 reporting.
  Task       46 on host cca9065 reporting.
  Task       47 on host cca9065 reporting.
  Task       48 on host cca9065 reporting.
  Task       49 on host cca9065 reporting.
  Task       50 on host cca9065 reporting.
  Task       51 on host cca9065 reporting.
  Task       52 on host cca9065 reporting.
  Task       53 on host cca9065 reporting.
  Task       54 on host cca9065 reporting.
  Task       55 on host cca9065 reporting.
  Task       56 on host cca9065 reporting.
  Task       57 on host cca9065 reporting.
  Task       58 on host cca9065 reporting.
  Task       59 on host cca9065 reporting.
  Task       60 on host cca9065 reporting.
  Task       61 on host cca9065 reporting.
  Task       62 on host cca9065 reporting.
  Task       63 on host cca9065 reporting.

  Obtaining array dimensions for all initial allocations:
  
  -----------------------------------------------------------------------
  Parsing control.in (first pass over file, find array dimensions only).
  The contents of control.in will be repeated verbatim below
  unless switched off by setting 'verbatim_writeout .false.' .
  in the first line of control.in .
  -----------------------------------------------------------------------
  
  #===============================================================================
  # Created using the Atomic Simulation Environment (ASE)
  
  # Tue Nov 11 18:51:15 2025
  
  #===============================================================================
  xc                                 PBE
  output_level                       full
  relativistic                       atomic_zora scalar
  occupation_type                    gaussian 0.01
  mixer                              pulay
  n_max_pulay                        10
  KS_method                          parallel
  RI_method                          LVL
  density_update_method              density_matrix
  atomic_solver_xc                   PBE
  basis_threshold                    1e-05
  override_illconditioning           .true.
  override_initial_charge_check      .true.
  use_2d_corr                        .true.
  qm_embedding_mo_localise           .false.
  qm_embedding_calc                  1
  charge                             -0.0
  #===============================================================================
  
  ################################################################################
  #
  #  FHI-aims code project
  #  Volker Blum, Fritz Haber Institute Berlin, 2009
  #
  #  Suggested "tight" defaults for C atom (to be pasted into control.in file)
  #
  ################################################################################
    species        C
  #     global species definitions
      nucleus             6
      mass                12.0107
  #
      l_hartree           6
  #
      cut_pot             4.0  2.0  1.0
      basis_dep_cutoff    1e-4
  #
      radial_base         34 7.0
      radial_multiplier   2
      angular_grids specified
        division   0.2187   50
        division   0.4416  110
        division   0.6335  194
        division   0.7727  302
        division   0.8772  434
  #      division   0.9334  590
  #      division   0.9924  770
  #      division   1.0230  974
  #      division   1.5020 1202
  #     outer_grid  974
        outer_grid  434
  ################################################################################
  #
  #  Definition of "minimal" basis
  #
  ################################################################################
  #     valence basis states
      valence      2  s   2.
      valence      2  p   2.
  #     ion occupancy
      ion_occ      2  s   1.
      ion_occ      2  p   1.
  ################################################################################
  #
  #  Suggested additional basis functions. For production calculations,
  #  uncomment them one after another (the most important basis functions are
  #  listed first).
  #
  #  Constructed for dimers: 1.0 A, 1.25 A, 1.5 A, 2.0 A, 3.0 A
  #
  ################################################################################
  #  "First tier" - improvements: -1214.57 meV to -155.61 meV
       hydro 2 p 1.7
       hydro 3 d 6
       hydro 2 s 4.9
  #  "Second tier" - improvements: -67.75 meV to -5.23 meV
       hydro 4 f 9.8
       hydro 3 p 5.2
       hydro 3 s 4.3
       hydro 5 g 14.4
       hydro 3 d 6.2
  #  "Third tier" - improvements: -2.43 meV to -0.60 meV
  #     hydro 2 p 5.6
  #     hydro 2 s 1.4
  #     hydro 3 d 4.9
  #     hydro 4 f 11.2
  #  "Fourth tier" - improvements: -0.39 meV to -0.18 meV
  #     hydro 2 p 2.1
  #     hydro 5 g 16.4
  #     hydro 4 d 13.2
  #     hydro 3 s 13.6
  #     hydro 4 f 17.6
  #  Further basis functions - improvements: -0.08 meV and below
  #     hydro 3 s 2
  #     hydro 3 p 6
  #     hydro 4 d 20
  ################################################################################
  #
  # For methods that use the localized form of the "resolution of identity" for
  # the two-electron Coulomb operator (RI_method LVL), particularly Hartree-Fock and
  # hybrid density functional calculations, the highest accuracy can be obtained by
  # uncommenting the line beginning with "for_aux"  below, thus adding an extra g radial
  # function to the construction of the product basis set for the expansion.
  # See Ref. New J. Phys. 17, 093020 (2015) for more information, particularly Figs. 1 and 6.
  #
  ################################################################################
  #
  # for_aux hydro 5 g 6.0
  ################################################################################
  #
  #  FHI-aims code project
  #  Volker Blum, Fritz Haber Institute Berlin, 2009
  #
  #  Suggested "tight" defaults for O atom (to be pasted into control.in file)
  #
  ################################################################################
    species        O
  #     global species definitions
      nucleus             8
      mass                15.9994
  #
      l_hartree           6
  #
      cut_pot             4.0  2.0  1.0
      basis_dep_cutoff    1e-4
  #
      radial_base         36 7.0
      radial_multiplier   2
       angular_grids specified
        division   0.1817   50
        division   0.3417  110
        division   0.4949  194
        division   0.6251  302
        division   0.8014  434
  #      division   0.8507  590
  #      division   0.8762  770
  #      division   0.9023  974
  #      division   1.2339 1202
  #      outer_grid 974
        outer_grid  434
  ################################################################################
  #
  #  Definition of "minimal" basis
  #
  ################################################################################
  #     valence basis states
      valence      2  s   2.
      valence      2  p   4.
  #     ion occupancy
      ion_occ      2  s   1.
      ion_occ      2  p   3.
  ################################################################################
  #
  #  Suggested additional basis functions. For production calculations,
  #  uncomment them one after another (the most important basis functions are
  #  listed first).
  #
  #  Constructed for dimers: 1.0 A, 1.208 A, 1.5 A, 2.0 A, 3.0 A
  #
  ################################################################################
  #  "First tier" - improvements: -699.05 meV to -159.38 meV
       hydro 2 p 1.8
       hydro 3 d 7.6
       hydro 3 s 6.4
  #  "Second tier" - improvements: -49.91 meV to -5.39 meV
       hydro 4 f 11.6
       hydro 3 p 6.2
       hydro 3 d 5.6
       hydro 5 g 17.6
       hydro 1 s 0.75
  #  "Third tier" - improvements: -2.83 meV to -0.50 meV
  #     ionic 2 p auto
  #     hydro 4 f 10.8
  #     hydro 4 d 4.7
  #     hydro 2 s 6.8
  #  "Fourth tier" - improvements: -0.40 meV to -0.12 meV
  #     hydro 3 p 5
  #     hydro 3 s 3.3
  #     hydro 5 g 15.6
  #     hydro 4 f 17.6
  #     hydro 4 d 14
  # Further basis functions - -0.08 meV and below
  #     hydro 3 s 2.1
  #     hydro 4 d 11.6
  #     hydro 3 p 16
  #     hydro 2 s 17.2
  ################################################################################
  #
  # For methods that use the localized form of the "resolution of identity" for
  # the two-electron Coulomb operator (RI_method LVL), particularly Hartree-Fock and
  # hybrid density functional calculations, the highest accuracy can be obtained by
  # uncommenting the line beginning with "for_aux"  below, thus adding an extra g radial
  # function to the construction of the product basis set for the expansion.
  # See Ref. New J. Phys. 17, 093020 (2015) for more information, particularly Figs. 1 and 6.
  #
  ################################################################################
  #
  # for_aux hydro 5 g 6.0
  ################################################################################
  #
  #  FHI-aims code project
  #  Volker Blum, Fritz Haber Institute Berlin, 2009
  #
  #  Suggested "tight" defaults for H atom (to be pasted into control.in file)
  #
  ################################################################################
    species        H
  #     global species definitions
      nucleus             1
      mass                1.00794
  #
      l_hartree           6
  #
      cut_pot             4.0  2.0  1.0
      basis_dep_cutoff    1e-4
  #
      radial_base         24 7.0
      radial_multiplier   2
      angular_grids       specified
        division   0.1930   50
        division   0.3175  110
        division   0.4293  194
        division   0.5066  302
        division   0.5626  434
  #      division   0.5922  590
  #      division   0.6227  974
  #      division   0.6868 1202
  #      outer_grid  770
        outer_grid  434
  ################################################################################
  #
  #  Definition of "minimal" basis
  #
  ################################################################################
  #     valence basis states
      valence      1  s   1.
  #     ion occupancy
      ion_occ      1  s   0.5
  ################################################################################
  #
  #  Suggested additional basis functions. For production calculations,
  #  uncomment them one after another (the most important basis functions are
  #  listed first).
  #
  #  Basis constructed for dimers: 0.5 A, 0.7 A, 1.0 A, 1.5 A, 2.5 A
  #
  ################################################################################
  #  "First tier" - improvements: -1014.90 meV to -62.69 meV
       hydro 2 s 2.1
       hydro 2 p 3.5
  #  "Second tier" - improvements: -12.89 meV to -1.83 meV
       hydro 1 s 0.85
       hydro 2 p 3.7
       hydro 2 s 1.2
       hydro 3 d 7
  #  "Third tier" - improvements: -0.25 meV to -0.12 meV
  #     hydro 4 f 11.2
  #     hydro 3 p 4.8
  #     hydro 4 d 9
  #     hydro 3 s 3.2
  ################################################################################
  #
  # For methods that use the localized form of the "resolution of identity" for
  # the two-electron Coulomb operator (RI_method LVL), particularly Hartree-Fock and
  # hybrid density functional calculations, the highest accuracy can be obtained by
  # uncommenting the line beginning with "for_aux"  below, thus adding an extra g radial
  # function to the construction of the product basis set for the expansion.
  # See Ref. New J. Phys. 17, 093020 (2015) for more information, particularly Figs. 1 and 6.
  #
  ################################################################################
  #
  # for_aux hydro 5 g 6.0
  
  -----------------------------------------------------------------------
  Completed first pass over input file control.in .
  -----------------------------------------------------------------------
  
  
  -----------------------------------------------------------------------
  Parsing geometry.in (first pass over file, find array dimensions only).
  The contents of geometry.in will be repeated verbatim below
  unless switched off by setting 'verbatim_writeout .false.' .
  in the first line of geometry.in .
  -----------------------------------------------------------------------
  
  #===============================================================================
  # Created using the Atomic Simulation Environment (ASE)
  
  # Tue Nov 11 18:51:15 2025
  
  #=======================================================
  atom -0.1156014100000000 -1.0041458100000000 0.1738246100000000 C
  qm_embedding_region 1
  atom -0.8142999400000001 -0.1971507500000000 -0.4105183000000000 O
  qm_embedding_region 1
  atom -0.6170175400000000 -1.8435122500000001 1.1351549299999999 O
  qm_embedding_region 1
  atom -1.5721565399999999 -1.6315852600000000 1.1940230400000000 H
  qm_embedding_region 1
  atom 1.3602907799999999 -1.2301562699999999 -0.0505529700000000 C
  qm_embedding_region 2
  atom 1.7175659000000001 -0.4131169200000000 -0.6910623000000000 H
  qm_embedding_region 2
  atom 1.8748703400000000 -1.1593839500000001 0.9211248700000000 H
  qm_embedding_region 2
  atom 1.6678420800000000 -2.5965268099999999 -0.6919616000000000 C
  qm_embedding_region 2
  atom 1.1221836999999999 -2.6778402300000002 -1.6476991200000000 H
  qm_embedding_region 2
  atom 1.2843007500000001 -3.3932438199999999 -0.0373217200000000 H
  qm_embedding_region 2
  atom 3.1679424200000001 -2.7830553600000001 -0.9466736400000000 C
  qm_embedding_region 2
  atom 3.5299820099999999 -1.9392894400000000 -1.5588785800000000 H
  qm_embedding_region 2
  atom 3.7103199600000001 -2.7200954400000001 0.0143533800000000 H
  qm_embedding_region 2
  atom 3.5332032799999999 -4.0980375100000002 -1.6504161700000000 C
  qm_embedding_region 2
  atom 4.5996856099999999 -4.0588389800000000 -1.9335482600000000 H
  qm_embedding_region 2
  atom 2.9692676200000001 -4.1651063600000002 -2.5966499100000000 H
  qm_embedding_region 2
  atom 3.3014428100000002 -5.3585980299999996 -0.8060788700000000 C
  qm_embedding_region 2
  atom 3.8136618400000000 -5.2277979099999996 0.1634419400000000 H
  qm_embedding_region 2
  atom 2.2278347699999999 -5.4676433199999996 -0.5730152800000000 H
  qm_embedding_region 2
  atom 3.8019761000000001 -6.6561251400000003 -1.4585769900000001 C
  qm_embedding_region 2
  atom 3.7460164100000002 -7.4711581799999998 -0.7155673800000000 H
  qm_embedding_region 2
  atom 4.8715522900000003 -6.5414464600000004 -1.7064073900000001 H
  qm_embedding_region 2
  atom 3.0158364299999998 -7.0814956400000000 -2.7058249000000001 C
  qm_embedding_region 2
  atom 1.9434476500000000 -7.1217018899999998 -2.4450419100000000 H
  qm_embedding_region 2
  atom 3.1106786700000000 -6.3127878600000003 -3.4924790600000000 H
  qm_embedding_region 2
  atom 3.4335731799999998 -8.4391167100000004 -3.2900208599999998 C
  qm_embedding_region 2
  atom 2.7146597500000000 -8.7185918000000004 -4.0804045799999997 H
  qm_embedding_region 2
  atom 3.3411498300000000 -9.2109748200000006 -2.5063131099999998 H
  qm_embedding_region 2
  atom 4.8460749600000002 -8.4638463099999992 -3.8899537799999999 C
  qm_embedding_region 2
  atom 4.9460860599999998 -7.6080122399999999 -4.5809306500000000 H
  qm_embedding_region 2
  atom 5.5976146099999999 -8.3055145899999996 -3.0968846100000000 H
  qm_embedding_region 2
  atom 5.1885814500000000 -9.7524201200000000 -4.6523308300000004 C
  qm_embedding_region 2
  atom 6.1477590800000002 -9.6082684100000009 -5.1802106300000004 H
  qm_embedding_region 2
  atom 4.4293079500000001 -9.9130081600000004 -5.4373563599999999 H
  qm_embedding_region 2
  atom 5.3062954400000004 -11.0032645599999999 -3.7712106200000002 C
  qm_embedding_region 2
  atom 6.0318615700000002 -10.7942982799999996 -2.9653924200000001 H
  qm_embedding_region 2
  atom 4.3435841599999998 -11.2062723000000002 -3.2704713500000002 H
  qm_embedding_region 2
  atom 5.7512881199999999 -12.2662258000000008 -4.5243992799999999 C
  qm_embedding_region 2
  atom 6.0006050899999996 -13.0513010999999999 -3.7888769600000001 H
  qm_embedding_region 2
  atom 6.6878477800000002 -12.0472130600000007 -5.0664358500000004 H
  qm_embedding_region 2
  atom 4.7011545500000000 -12.8287022099999994 -5.4922125700000004 C
  qm_embedding_region 2
  atom 3.7679150799999999 -13.0025746499999997 -4.9278972699999999 H
  qm_embedding_region 2
  atom 4.4561096899999999 -12.0779975799999999 -6.2636427200000000 H
  qm_embedding_region 2
  atom 5.1122514700000004 -14.1359411900000005 -6.1862647600000003 C
  qm_embedding_region 2
  atom 4.2287750099999997 -14.5621865300000000 -6.6935307399999999 H
  qm_embedding_region 2
  atom 5.4076826999999996 -14.8717276700000003 -5.4181089499999997 H
  qm_embedding_region 2
  atom 6.2327068700000003 -13.9764862799999996 -7.2230412399999997 C
  qm_embedding_region 2
  atom 5.9323947900000000 -13.1916808700000008 -7.9398061599999998 H
  qm_embedding_region 2
  atom 7.1519950699999999 -13.6080463500000004 -6.7348353100000002 H
  qm_embedding_region 2
  atom 6.5629408299999996 -15.2576605599999997 -8.0032695100000009 C
  qm_embedding_region 2
  atom 7.2333500300000004 -15.0003326599999998 -8.8423480899999998 H
  qm_embedding_region 2
  atom 5.6356460400000001 -15.6452572300000003 -8.4604705399999993 H
  qm_embedding_region 2
  atom 7.2351238400000000 -16.3546197599999985 -7.1670374299999997 C
  qm_embedding_region 2
  atom 8.1260337699999994 -15.9226562900000008 -6.6775726600000000 H
  qm_embedding_region 2
  atom 6.5631142899999997 -16.6749957299999991 -6.3517072499999996 H
  qm_embedding_region 2
  atom 7.6624171499999996 -17.5912671799999991 -7.9715246100000003 C
  qm_embedding_region 2
  atom 8.2820061099999993 -18.2359599599999989 -7.3259554800000002 H
  qm_embedding_region 2
  atom 8.3177475600000008 -17.2730744899999991 -8.8016524599999997 H
  qm_embedding_region 2
  atom 6.4980548899999997 -18.4173536599999998 -8.5268129899999998 C
  qm_embedding_region 2
  atom 5.8344387800000002 -18.7569578499999992 -7.7157615699999997 H
  qm_embedding_region 2
  atom 5.8863762700000004 -17.8421056699999987 -9.2372164600000009 H
  qm_embedding_region 2
  atom 6.8609730999999998 -19.3106925300000007 -9.0554156700000004 H
  qm_embedding_region 2
  
  -----------------------------------------------------------------------
  Completed first pass over input file geometry.in .
  -----------------------------------------------------------------------
  

  Basic array size parameters:
  | Number of species                 :        3
  | Number of atoms                   :       62
  | Max. basis fn. angular momentum   :        4
  | Max. atomic/ionic basis occupied n:        2
  | Max. number of basis fn. types    :        2
  | Max. radial fns per species/type  :        8
  | Max. logarithmic grid size        :     1301
  | Max. radial integration grid size :       73
  | Max. angular integration grid size:      434
  | Max. angular grid division number :        8
  | Radial grid for Hartree potential :     1301
  | Number of spin channels           :        1

  Definition of standardized fundamental physical constants in this FHI-aims run:
  | Using the set of values used in FHI-aims up to 2024, which combines values from
  | different CODATA sets - see constants.f90.
  | Use the 'codata' keyword in control.in to change this selection.

  Memory overcommitment is allowed on your operating system.

------------------------------------------------------------
          Reading file control.in.
------------------------------------------------------------
  XC: Using PBE gradient-corrected functionals.
  Requested output level: full
  Scalar relativistic treatment of kinetic energy: on-site free-atom approximation to ZORA.
  Occupation type: Gaussian broadening, width =   0.100000E-01 eV.
  Using pulay charge density mixing.
  Pulay mixing - number of memorized iterations:   10
  Kohn-Sham electronic structure solved by the ELSI library.
  The 'LVL' version of RI (resolution of identity) technique is used.
  ** This is a localized expansion of all basis function products.
     Its intended use are Hartree-Fock and hybrid functionals.
     For RPA, MP2, GW, etc., LVL is not yet as accurate. In those cases, check carefully.
  Atomic Solver XC: Using user-defined functional for generating the minimal NAO basis functions.
  Note that only the following functionals are available: kli, pz-lda, pw-lda, vwn, vwn-gauss, pw91_gga, pbe, rpbe, revpbe, pbeint, pbesol, blyp.
  Threshold for basis singularities:  0.1000E-04
  override_illconditioning: Explicitly overriding any built-in checks for an ill-conditioned overlap matrix.
** WARNING:
  ***  If you use this flag, you should really know what you are doing.
** END OF WARNING
** WARNING:
  *** DO NOT keep this flag set by default in all your control.in files.
** END OF WARNING
  Efficient 2D distribution for correlation code.
  Charge =   0.000000E+00: Neutral system requested explicitly.
 
  Reading configuration options for species C                   .
  | Found nuclear charge :   6.0000
  | Found atomic mass :    12.0107000000000      amu
  | Found l_max for Hartree potential  :   6
  | Found cutoff potl. onset [A], width [A], scale factor :    4.00000    2.00000    1.00000
  | Threshold for basis-dependent cutoff potential is   0.100000E-03
  | Found data for basic radial integration grid :    34 points, outermost radius =    7.000 A
  | Found multiplier for basic radial grid :   2
  | Found angular grid specification: user-specified.
  | Specified grid contains     6 separate shells.
  | Check grid settings after all constraints further below.
  | Found free-atom valence shell :  2 s   2.000
  | Found free-atom valence shell :  2 p   2.000
  | No ionic wave fns used. Skipping ion_occ.
  | No ionic wave fns used. Skipping ion_occ.
  | Found hydrogenic basis function :  2 p   1.700
  | Found hydrogenic basis function :  3 d   6.000
  | Found hydrogenic basis function :  2 s   4.900
  | Found hydrogenic basis function :  4 f   9.800
  | Found hydrogenic basis function :  3 p   5.200
  | Found hydrogenic basis function :  3 s   4.300
  | Found hydrogenic basis function :  5 g  14.400
  | Found hydrogenic basis function :  3 d   6.200
 | Encountered keyword species, ending the description of species C                   .
  Species C                   : Missing cutoff potential type.
  Defaulting to exp(1/x)/(1-x)^2 type cutoff potential.
  Species C : No 'logarithmic' tag. Using default grid for free atom:
  | Default logarithmic grid data [bohr] : 0.1000E-03 0.1000E+03 0.1012E+01
  Species C : On-site basis accuracy parameter (for Gram-Schmidt orthonormalisation) not specified.
  Using default value basis_acc =  0.1000000E-03.
  Species C                   : Using default innermost maximum threshold i_radial=  2 for radial functions.
  Species C                   : Default cutoff onset for free atom density etc. : 0.40000000E+01 AA.
  Species C                   : Basic radial grid will be enhanced according to radial_multiplier =   2, to contain    69 grid points.
 
  Reading configuration options for species O                   .
  | Found nuclear charge :   8.0000
  | Found atomic mass :    15.9994000000000      amu
  | Found l_max for Hartree potential  :   6
  | Found cutoff potl. onset [A], width [A], scale factor :    4.00000    2.00000    1.00000
  | Threshold for basis-dependent cutoff potential is   0.100000E-03
  | Found data for basic radial integration grid :    36 points, outermost radius =    7.000 A
  | Found multiplier for basic radial grid :   2
  | Found angular grid specification: user-specified.
  | Specified grid contains     6 separate shells.
  | Check grid settings after all constraints further below.
  | Found free-atom valence shell :  2 s   2.000
  | Found free-atom valence shell :  2 p   4.000
  | No ionic wave fns used. Skipping ion_occ.
  | No ionic wave fns used. Skipping ion_occ.
  | Found hydrogenic basis function :  2 p   1.800
  | Found hydrogenic basis function :  3 d   7.600
  | Found hydrogenic basis function :  3 s   6.400
  | Found hydrogenic basis function :  4 f  11.600
  | Found hydrogenic basis function :  3 p   6.200
  | Found hydrogenic basis function :  3 d   5.600
  | Found hydrogenic basis function :  5 g  17.600
  | Found hydrogenic basis function :  1 s   0.750
 | Encountered keyword species, ending the description of species O                   .
  Species O                   : Missing cutoff potential type.
  Defaulting to exp(1/x)/(1-x)^2 type cutoff potential.
  Species O : No 'logarithmic' tag. Using default grid for free atom:
  | Default logarithmic grid data [bohr] : 0.1000E-03 0.1000E+03 0.1012E+01
  Species O : On-site basis accuracy parameter (for Gram-Schmidt orthonormalisation) not specified.
  Using default value basis_acc =  0.1000000E-03.
  Species O                   : Using default innermost maximum threshold i_radial=  2 for radial functions.
  Species O                   : Default cutoff onset for free atom density etc. : 0.40000000E+01 AA.
  Species O                   : Basic radial grid will be enhanced according to radial_multiplier =   2, to contain    73 grid points.
 
  Reading configuration options for species H                   .
  | Found nuclear charge :   1.0000
  | Found atomic mass :    1.00794000000000      amu
  | Found l_max for Hartree potential  :   6
  | Found cutoff potl. onset [A], width [A], scale factor :    4.00000    2.00000    1.00000
  | Threshold for basis-dependent cutoff potential is   0.100000E-03
  | Found data for basic radial integration grid :    24 points, outermost radius =    7.000 A
  | Found multiplier for basic radial grid :   2
  | Found angular grid specification: user-specified.
  | Specified grid contains     6 separate shells.
  | Check grid settings after all constraints further below.
  | Found free-atom valence shell :  1 s   1.000
  | No ionic wave fns used. Skipping ion_occ.
  | Found hydrogenic basis function :  2 s   2.100
  | Found hydrogenic basis function :  2 p   3.500
  | Found hydrogenic basis function :  1 s   0.850
  | Found hydrogenic basis function :  2 p   3.700
  | Found hydrogenic basis function :  2 s   1.200
  | Found hydrogenic basis function :  3 d   7.000
  Species H                   : Missing cutoff potential type.
  Defaulting to exp(1/x)/(1-x)^2 type cutoff potential.
  Species H : No 'logarithmic' tag. Using default grid for free atom:
  | Default logarithmic grid data [bohr] : 0.1000E-03 0.1000E+03 0.1012E+01
  Species H : On-site basis accuracy parameter (for Gram-Schmidt orthonormalisation) not specified.
  Using default value basis_acc =  0.1000000E-03.
  Species H                   : Using default innermost maximum threshold i_radial=  2 for radial functions.
  Species H                   : Default cutoff onset for free atom density etc. : 0.40000000E+01 AA.
  Species H                   : Basic radial grid will be enhanced according to radial_multiplier =   2, to contain    49 grid points.
 
  Finished reading input file 'control.in'.
 
------------------------------------------------------------


------------------------------------------------------------
          Reading geometry description geometry.in.
------------------------------------------------------------
  | The smallest distance between any two atoms is         0.98013724 AA.
  | The first atom of this pair is atom number                      3 .
  | The second atom of this pair is atom number                     4 .
  Input structure read successfully.
  The structure contains       62 atoms,  and a total of        176.000 electrons.

  Input geometry:
  | No unit cell requested.
  | Atomic structure:
  |       Atom                x [A]            y [A]            z [A]
  |    1: Species C            -0.11560141       -1.00414581        0.17382461
  |    2: Species O            -0.81429994       -0.19715075       -0.41051830
  |    3: Species O            -0.61701754       -1.84351225        1.13515493
  |    4: Species H            -1.57215654       -1.63158526        1.19402304
  |    5: Species C             1.36029078       -1.23015627       -0.05055297
  |    6: Species H             1.71756590       -0.41311692       -0.69106230
  |    7: Species H             1.87487034       -1.15938395        0.92112487
  |    8: Species C             1.66784208       -2.59652681       -0.69196160
  |    9: Species H             1.12218370       -2.67784023       -1.64769912
  |   10: Species H             1.28430075       -3.39324382       -0.03732172
  |   11: Species C             3.16794242       -2.78305536       -0.94667364
  |   12: Species H             3.52998201       -1.93928944       -1.55887858
  |   13: Species H             3.71031996       -2.72009544        0.01435338
  |   14: Species C             3.53320328       -4.09803751       -1.65041617
  |   15: Species H             4.59968561       -4.05883898       -1.93354826
  |   16: Species H             2.96926762       -4.16510636       -2.59664991
  |   17: Species C             3.30144281       -5.35859803       -0.80607887
  |   18: Species H             3.81366184       -5.22779791        0.16344194
  |   19: Species H             2.22783477       -5.46764332       -0.57301528
  |   20: Species C             3.80197610       -6.65612514       -1.45857699
  |   21: Species H             3.74601641       -7.47115818       -0.71556738
  |   22: Species H             4.87155229       -6.54144646       -1.70640739
  |   23: Species C             3.01583643       -7.08149564       -2.70582490
  |   24: Species H             1.94344765       -7.12170189       -2.44504191
  |   25: Species H             3.11067867       -6.31278786       -3.49247906
  |   26: Species C             3.43357318       -8.43911671       -3.29002086
  |   27: Species H             2.71465975       -8.71859180       -4.08040458
  |   28: Species H             3.34114983       -9.21097482       -2.50631311
  |   29: Species C             4.84607496       -8.46384631       -3.88995378
  |   30: Species H             4.94608606       -7.60801224       -4.58093065
  |   31: Species H             5.59761461       -8.30551459       -3.09688461
  |   32: Species C             5.18858145       -9.75242012       -4.65233083
  |   33: Species H             6.14775908       -9.60826841       -5.18021063
  |   34: Species H             4.42930795       -9.91300816       -5.43735636
  |   35: Species C             5.30629544      -11.00326456       -3.77121062
  |   36: Species H             6.03186157      -10.79429828       -2.96539242
  |   37: Species H             4.34358416      -11.20627230       -3.27047135
  |   38: Species C             5.75128812      -12.26622580       -4.52439928
  |   39: Species H             6.00060509      -13.05130110       -3.78887696
  |   40: Species H             6.68784778      -12.04721306       -5.06643585
  |   41: Species C             4.70115455      -12.82870221       -5.49221257
  |   42: Species H             3.76791508      -13.00257465       -4.92789727
  |   43: Species H             4.45610969      -12.07799758       -6.26364272
  |   44: Species C             5.11225147      -14.13594119       -6.18626476
  |   45: Species H             4.22877501      -14.56218653       -6.69353074
  |   46: Species H             5.40768270      -14.87172767       -5.41810895
  |   47: Species C             6.23270687      -13.97648628       -7.22304124
  |   48: Species H             5.93239479      -13.19168087       -7.93980616
  |   49: Species H             7.15199507      -13.60804635       -6.73483531
  |   50: Species C             6.56294083      -15.25766056       -8.00326951
  |   51: Species H             7.23335003      -15.00033266       -8.84234809
  |   52: Species H             5.63564604      -15.64525723       -8.46047054
  |   53: Species C             7.23512384      -16.35461976       -7.16703743
  |   54: Species H             8.12603377      -15.92265629       -6.67757266
  |   55: Species H             6.56311429      -16.67499573       -6.35170725
  |   56: Species C             7.66241715      -17.59126718       -7.97152461
  |   57: Species H             8.28200611      -18.23595996       -7.32595548
  |   58: Species H             8.31774756      -17.27307449       -8.80165246
  |   59: Species C             6.49805489      -18.41735366       -8.52681299
  |   60: Species H             5.83443878      -18.75695785       -7.71576157
  |   61: Species H             5.88637627      -17.84210567       -9.23721646
  |   62: Species H             6.86097310      -19.31069253       -9.05541567

  Slab Identifier: This is not a periodic structure.
 
  Finished reading input file 'geometry.in'.
 

 
  Consistency checks for stacksize environment parameter are next.
 
  | Maximum stacksize for task 0: unlimited
  | Maximum stacksize for task 1: unlimited
  | Maximum stacksize for task 2: unlimited
  | Maximum stacksize for task 3: unlimited
  | Maximum stacksize for task 4: unlimited
  | Maximum stacksize for task 5: unlimited
  | Maximum stacksize for task 6: unlimited
  | Maximum stacksize for task 7: unlimited
  | Maximum stacksize for task 8: unlimited
  | Maximum stacksize for task 9: unlimited
  | Maximum stacksize for task 10: unlimited
  | Maximum stacksize for task 11: unlimited
  | Maximum stacksize for task 12: unlimited
  | Maximum stacksize for task 13: unlimited
  | Maximum stacksize for task 14: unlimited
  | Maximum stacksize for task 15: unlimited
  | Maximum stacksize for task 16: unlimited
  | Maximum stacksize for task 17: unlimited
  | Maximum stacksize for task 18: unlimited
  | Maximum stacksize for task 19: unlimited
  | Maximum stacksize for task 20: unlimited
  | Maximum stacksize for task 21: unlimited
  | Maximum stacksize for task 22: unlimited
  | Maximum stacksize for task 23: unlimited
  | Maximum stacksize for task 24: unlimited
  | Maximum stacksize for task 25: unlimited
  | Maximum stacksize for task 26: unlimited
  | Maximum stacksize for task 27: unlimited
  | Maximum stacksize for task 28: unlimited
  | Maximum stacksize for task 29: unlimited
  | Maximum stacksize for task 30: unlimited
  | Maximum stacksize for task 31: unlimited
  | Maximum stacksize for task 32: unlimited
  | Maximum stacksize for task 33: unlimited
  | Maximum stacksize for task 34: unlimited
  | Maximum stacksize for task 35: unlimited
  | Maximum stacksize for task 36: unlimited
  | Maximum stacksize for task 37: unlimited
  | Maximum stacksize for task 38: unlimited
  | Maximum stacksize for task 39: unlimited
  | Maximum stacksize for task 40: unlimited
  | Maximum stacksize for task 41: unlimited
  | Maximum stacksize for task 42: unlimited
  | Maximum stacksize for task 43: unlimited
  | Maximum stacksize for task 44: unlimited
  | Maximum stacksize for task 45: unlimited
  | Maximum stacksize for task 46: unlimited
  | Maximum stacksize for task 47: unlimited
  | Maximum stacksize for task 48: unlimited
  | Maximum stacksize for task 49: unlimited
  | Maximum stacksize for task 50: unlimited
  | Maximum stacksize for task 51: unlimited
  | Maximum stacksize for task 52: unlimited
  | Maximum stacksize for task 53: unlimited
  | Maximum stacksize for task 54: unlimited
  | Maximum stacksize for task 55: unlimited
  | Maximum stacksize for task 56: unlimited
  | Maximum stacksize for task 57: unlimited
  | Maximum stacksize for task 58: unlimited
  | Maximum stacksize for task 59: unlimited
  | Maximum stacksize for task 60: unlimited
  | Maximum stacksize for task 61: unlimited
  | Maximum stacksize for task 62: unlimited
  | Maximum stacksize for task 63: unlimited
  | Current stacksize for task 0: unlimited
  | Current stacksize for task 1: unlimited
  | Current stacksize for task 2: unlimited
  | Current stacksize for task 3: unlimited
  | Current stacksize for task 4: unlimited
  | Current stacksize for task 5: unlimited
  | Current stacksize for task 6: unlimited
  | Current stacksize for task 7: unlimited
  | Current stacksize for task 8: unlimited
  | Current stacksize for task 9: unlimited
  | Current stacksize for task 10: unlimited
  | Current stacksize for task 11: unlimited
  | Current stacksize for task 12: unlimited
  | Current stacksize for task 13: unlimited
  | Current stacksize for task 14: unlimited
  | Current stacksize for task 15: unlimited
  | Current stacksize for task 16: unlimited
  | Current stacksize for task 17: unlimited
  | Current stacksize for task 18: unlimited
  | Current stacksize for task 19: unlimited
  | Current stacksize for task 20: unlimited
  | Current stacksize for task 21: unlimited
  | Current stacksize for task 22: unlimited
  | Current stacksize for task 23: unlimited
  | Current stacksize for task 24: unlimited
  | Current stacksize for task 25: unlimited
  | Current stacksize for task 26: unlimited
  | Current stacksize for task 27: unlimited
  | Current stacksize for task 28: unlimited
  | Current stacksize for task 29: unlimited
  | Current stacksize for task 30: unlimited
  | Current stacksize for task 31: unlimited
  | Current stacksize for task 32: unlimited
  | Current stacksize for task 33: unlimited
  | Current stacksize for task 34: unlimited
  | Current stacksize for task 35: unlimited
  | Current stacksize for task 36: unlimited
  | Current stacksize for task 37: unlimited
  | Current stacksize for task 38: unlimited
  | Current stacksize for task 39: unlimited
  | Current stacksize for task 40: unlimited
  | Current stacksize for task 41: unlimited
  | Current stacksize for task 42: unlimited
  | Current stacksize for task 43: unlimited
  | Current stacksize for task 44: unlimited
  | Current stacksize for task 45: unlimited
  | Current stacksize for task 46: unlimited
  | Current stacksize for task 47: unlimited
  | Current stacksize for task 48: unlimited
  | Current stacksize for task 49: unlimited
  | Current stacksize for task 50: unlimited
  | Current stacksize for task 51: unlimited
  | Current stacksize for task 52: unlimited
  | Current stacksize for task 53: unlimited
  | Current stacksize for task 54: unlimited
  | Current stacksize for task 55: unlimited
  | Current stacksize for task 56: unlimited
  | Current stacksize for task 57: unlimited
  | Current stacksize for task 58: unlimited
  | Current stacksize for task 59: unlimited
  | Current stacksize for task 60: unlimited
  | Current stacksize for task 61: unlimited
  | Current stacksize for task 62: unlimited
  | Current stacksize for task 63: unlimited
 
  Consistency checks for the contents of control.in are next.
 
  MPI_IN_PLACE appears to work with this MPI implementation.
  | Keeping use_mpi_in_place .true. (see manual).
  Target number of points in a grid batch is not set. Defaulting to  100
  Method for grid partitioning is not set. Defaulting to parallel hash+maxmin partitioning.
  Batch size limit is not set. Defaulting to    200
  By default, will store active basis functions for each batch.
  If in need of memory, prune_basis_once .false. can be used to disable this option.
  communication_type for Hartree potential was not specified.
  Defaulting to calc_hartree .
  Pulay mixer: Number of initial linear mixing iterations not set.
  Defaulting to    0 iterations.
  Work space size for distributed Hartree potential not set.
  Defaulting to   0.200000E+03 MB.
  Mixing parameter for charge density mixing has not been set.
  Using default: charge_mix_param =     0.0500.
  The mixing parameter will be adjusted in iteration number     2 of each s.c.f. cycle (i.e., each geometry step).
  Algorithm-dependent basis array size parameters:
  | n_max_pulay                         :       10
  Maximum number of self-consistency iterations not provided.
  Presetting  1000 iterations.
  Presetting      1001 iterations before the initial mixing cycle
  is restarted anyway using the sc_init_iter criterion / keyword.
  Presetting a factor      1.000 between actual scf density residual
  and density convergence criterion sc_accuracy_rho below which sc_init_iter
  takes no effect.
 * No s.c.f. convergence criteria (sc_accuracy_*) were provided in control.in.
 * The run will proceed with a reasonable default guess, but please check whether.
 * the s.c.f. cycles seem to take too much or too little time.
  Calculation of forces was not defined in control.in. No forces will be calculated.
  Geometry relaxation not requested: no relaxation will be performed.
 * Notice: The s.c.f. convergence criterion sc_accuracy_rho was not provided.
 * We used to stop in this case, and ask the user to provide reasonable
 * scf convergence criteria. However, this led some users to employ criteria
 * that led to extremely long run times, e.g., for simple relaxation.
 * We now preset a default value for sc_accuracy_rho if it is not set.
 * You may still wish to check if this setting is too tight or too loose for your needs.
 * Based on n_atoms and forces and force-correction status, FHI-aims chose sc_accuracy_rho =  0.257164E-04 .
  No accuracy limit for integral partition fn. given. Defaulting to  0.1000E-14.
  No threshold value for u(r) in integrations given. Defaulting to  0.1000E-05.
  No accuracy for occupation numbers given. Defaulting to  0.1000E-12.
  No threshold value for occupation numbers given. Defaulting to  0.0000E+00.
  No accuracy for fermi level given. Defaulting to  0.1000E-19.
  Maximum # of iterations to find E_F not set. Defaulting to  200.
  Will not use alltoall communication since running on < 1024 CPUs.
  partition_type (choice of integration weights) for integrals was not specified.
  | Using a version of the partition function of Stratmann and coworkers ('stratmann_sparse').
  | At each grid point, the set of atoms used to build the partition table is smoothly restricted to
  | only those atoms whose free-atom density would be non-zero at that grid point.
  Partitioning for Hartree potential was not defined. Using partition_type for integrals.
  | Adjusted default value of keyword multip_moments_threshold to:       0.10000000E-11
  | This value may affect high angular momentum components of the Hartree potential in periodic systems.
  Spin handling was not defined in control.in. Defaulting to unpolarized case.
  No q(lm)/r^(l+1) cutoff set for long-range Hartree potential.
  | Using default value of  0.100000E-09 .
  | Verify using the multipole_threshold keyword.
  Defaulting to new monopole extrapolation.
  Density update method: density matrix based density update selected.
  Scalapack and density-matrix based density update required:
  Switching to packed matrix format "index" by default.
  Charge integration errors on the 3D integration grid will be compensated
  by explicit normalization and distribution of residual charges.
  Use the "compensate_multipole_errors" flag to change this behaviour.
  Found no potential conflicts with setting 'use_local_index' for this calculation.
  Flag 'use_local_index' has not been set.
  Testing whether we classify this calculation as large-scale ...
  The calculation contains less than 100 atoms. This is most likely not a large-scale calculation.
  Not setting 'use_local_index'.
 
  Consistency checks for the contents of geometry.in are next.
 
  Number of empty states per atom not set in control.in - providing a guess from actual geometry.
  | Total number of empty states used during s.c.f. cycle:      126
  If you use a very high smearing, use empty_states (per atom!) in control.in to increase this value.

  Structure-dependent array size parameters: 
  | Maximum number of distinct radial functions  :       29
  | Maximum number of basis functions            :     1458
  | Number of Kohn-Sham states (occupied + empty):      214
------------------------------------------------------------
  After read_input_data [GB]:    224.10

  Performing system and environment tests:
  | Environment variable OMP_NUM_THREADS correctly set to 1.
  | Checking for ScaLAPACK...
  | Testing pdtran()...
  | All pdtran() tests passed.
  | Testing CPU compatibility for run-time vs. build-time.
  | Reading /proc/cpuinfo for CPU information ...
  | Built for  : AMD EPYC 7502 32-Core Processor
  | Running on : AMD EPYC 7502 32-Core Processor
  | Runtime CPU compatibility verified.
  
  After prepare_system [GB]:    224.11

------------------------------------------------------------
          Preparing all fixed parts of the calculation.
------------------------------------------------------------
  Determining machine precision:
    2.225073858507201E-308
  Setting up grids for atomic and cluster calculations.

  Creating wave function, potential, and density for free atoms.
  Runtime choices for atomic solver:
  | atomic solver xc        : PBE
  | compute density gradient: 1
  | compute kinetic density : F

  Species: C

  List of occupied orbitals and eigenvalues:
    n    l              occ      energy [Ha]    energy [eV]
    1    0           2.0000       -10.049212      -273.4530
    2    0           2.0000        -0.504761       -13.7352
    2    1           2.0000        -0.193631        -5.2690


  Species: O

  List of occupied orbitals and eigenvalues:
    n    l              occ      energy [Ha]    energy [eV]
    1    0           2.0000       -18.927378      -515.0401
    2    0           2.0000        -0.880539       -23.9607
    2    1           4.0000        -0.331811        -9.0290


  Species: H

  List of occupied orbitals and eigenvalues:
    n    l              occ      energy [Ha]    energy [eV]
    1    0           1.0000        -0.238386        -6.4868


  Adding cutoff potential to free-atom effective potential.
  Creating fixed part of basis set: Ionic, confined, hydrogenic.
 
  C                    hydrogenic:
 
  List of hydrogenic basis orbitals: 
    n    l      effective z      eigenvalue [eV]  inner max. [A]     outer max. [A]     outer radius [A]   
    2    1         1.700000        -9.8152           1.245706           1.245706           5.401630
    3    2         6.000000       -54.4226           0.792453           0.792453           4.178599
    2    0         4.900000       -81.6681           0.082559           0.562749           3.353238
    4    3         9.800000       -81.6681           0.863254           0.863254           4.028125
    3    1         5.200000       -40.8774           0.305389           1.215618           4.898362
    3    0         4.300000       -27.9508           0.091041           1.610311           5.401630
    5    4        14.400000      -112.8510           0.917666           0.917666           3.883070
    3    2         6.200000       -58.1113           0.763917           0.763917           4.077671
 
 
  O                    hydrogenic:
 
  List of hydrogenic basis orbitals: 
    n    l      effective z      eigenvalue [eV]  inner max. [A]     outer max. [A]     outer radius [A]   
    2    1         1.800000       -11.0118           1.178562           1.178562           5.432602
    3    2         7.600000       -87.3182           0.624125           0.624125           3.541477
    3    0         6.400000       -61.9209           0.061167           1.081902           4.306578
    4    3        11.600000      -114.4238           0.731631           0.731631           3.585037
    3    1         6.200000       -58.1113           0.255680           1.030270           4.306578
    3    2         5.600000       -47.4081           0.847233           0.847233           4.413171
    5    4        17.600000      -168.5799           0.749740           0.749740           3.372465
    1    0         0.750000        -7.6499           0.705284           0.705284           5.366593
 
 
  H                    hydrogenic:
 
  List of hydrogenic basis orbitals: 
    n    l      effective z      eigenvalue [eV]  inner max. [A]     outer max. [A]     outer radius [A]   
    2    0         2.100000       -14.9965           0.193243           1.317208           5.373006
    2    1         3.500000       -41.6672           0.602369           0.602369           4.056063
    1    0         0.850000        -9.8292           0.624871           0.624871           5.373006
    2    1         3.700000       -46.5653           0.573622           0.573622           3.910002
    2    0         1.200000        -4.5995           0.334980           2.228188           5.505995
    3    2         7.000000       -74.0753           0.680699           0.680699           3.769201
 
  Creating atomic-like basis functions for current effective potential.

  Species C                   :

  List of atomic basis orbitals and eigenvalues:
    n    l      energy [Ha]    energy [eV]    outer radius [A]
    1    0       -10.049212      -273.4530       1.934409
    2    0        -0.504761       -13.7352       5.271162
    2    1        -0.193631        -5.2690       5.401630


  Species O                   :

  List of atomic basis orbitals and eigenvalues:
    n    l      energy [Ha]    energy [eV]    outer radius [A]
    1    0       -18.927378      -515.0401       1.415765
    2    0        -0.880539       -23.9607       5.048385
    2    1        -0.331811        -9.0290       5.301386


  Species H                   :

  List of atomic basis orbitals and eigenvalues:
    n    l      energy [Ha]    energy [eV]    outer radius [A]
    1    0        -0.238386        -6.4868       5.373006

  Assembling full basis from fixed parts.
  | Species C :   atomic orbital   1 s accepted.
  | Species C :    hydro orbital   2 s accepted.
  | Species C :   atomic orbital   2 s accepted.
  | Species C :    hydro orbital   3 s accepted.
  | Species C :    hydro orbital   3 p accepted.
  | Species C :   atomic orbital   2 p accepted.
  | Species C :    hydro orbital   2 p accepted.
  | Species C :    hydro orbital   3 d accepted.
  | Species C :    hydro orbital   3 d accepted.
  | Species C :    hydro orbital   4 f accepted.
  | Species C :    hydro orbital   5 g accepted.
  | Species O :   atomic orbital   1 s accepted.
  | Species O :    hydro orbital   3 s accepted.
  | Species O :   atomic orbital   2 s accepted.
  | Species O :    hydro orbital   1 s accepted.
  | Species O :    hydro orbital   3 p accepted.
  | Species O :   atomic orbital   2 p accepted.
  | Species O :    hydro orbital   2 p accepted.
  | Species O :    hydro orbital   3 d accepted.
  | Species O :    hydro orbital   3 d accepted.
  | Species O :    hydro orbital   4 f accepted.
  | Species O :    hydro orbital   5 g accepted.
  | Species H :   atomic orbital   1 s accepted.
  | Species H :    hydro orbital   2 s accepted.
  | Species H :    hydro orbital   1 s accepted.
  | Species H :    hydro orbital   2 s accepted.
  | Species H :    hydro orbital   2 p accepted.
  | Species H :    hydro orbital   2 p accepted.
  | Species H :    hydro orbital   3 d accepted.
 
  Basis size parameters after reduction:
  | Total number of radial functions:       29
  | Total number of basis functions :     1458
 
  Per-task memory consumption for arrays in subroutine allocate_ext:
  |           9.697268MB.
  Testing on-site integration grid accuracy.
  |  Species  Function  <phi|h_atom|phi> (log., in eV)  <phi|h_atom|phi> (rad., in eV)
           1        1               -273.4529725981               -273.4529710451
           1        2                -10.7721037329                -10.7721022102
           1        3                 17.6044132585                 17.6044162052
           1        4                 53.7706460564                 53.7706913681
           1        5                 15.0973290351                 15.0973256011
           1        6                  3.8545134677                  3.8545724657
           1        7                 12.1156992586                 12.1182024423
           1        8                 29.4352039288                 29.4352041805
           1        9                 54.8741144697                 54.8740268719
           1       10                 59.3556032036                 59.3556031370
           1       11                 93.4551837140                 93.4551837996
           2       12               -515.0401491148               -515.0401445497
           2       13                 15.1629302771                 15.1629233102
           2       14                -21.6127103295                -21.6127145449
           2       15                 14.4001435709                 14.4001765990
           2       16                 20.8862585187                 20.8862589491
           2       17                 -2.4803658578                 -2.4803665016
           2       18                 13.8586387760                 13.8586021622
           2       19                 45.8331828879                 45.8331828941
           2       20                 52.1851961049                 52.1851977023
           2       21                 85.4133898762                 85.4133899074
           2       22                142.1023296234                142.1023296272
           3       23                 -6.4870767962                 -6.4871688290
           3       24                 13.5032046589                 13.5028982997
           3       25                 32.8195184817                 32.8119941656
           3       26                 33.8513856511                 33.7670005767 ***
           3       27                 28.8544614965                 28.8544615203
           3       28                 59.6326952547                 59.6327656460
           3       29                 60.2719308513                 60.2719305949
 * Note: Onsite integrals marked "***" above are less accurate than
 * onsite_accuracy_threshold =    0.03000 eV. Usually, this is harmless.
 * When in doubt, tighten the "radial" and/or "radial_multiplier" flags to check.

  Task       0:*** pseudo_inverse, for evaluate_coeff_d: error of  6.04E-14; eps:  1.00E-15
  Preparing densities etc. for the partition functions (integrals / Hartree potential).

  Preparations completed.
  max(cpu_time)          :      0.151 s.
  Wall clock time (cpu1) :      0.151 s.
------------------------------------------------------------
  After prepare_scf [GB]:    224.08

  Initializing index lists of integration centers etc. from given atomic structure:
  | Number of centers in hartree potential                       :        62
  | Number of centers in hartree multipole                       :        62
  | Number of centers in electron density summation              :        62
  | Number of centers in basis integrals                         :        62
  | Number of centers in integrals                               :        62
  | Number of centers in hamiltonian                             :        62
  | Number of centers in partition table from touching 0-cell    :        62
  | Number of centers in partition table total                   :        62
  After initialize_bc_dependent_lists [GB]:    224.08

  Initializing index lists of integration centers etc. from given atomic structure:
  | Number of centers in hartree potential                       :        62
  | Number of centers in hartree multipole                       :        62
  | Number of centers in electron density summation              :        62
  | Number of centers in basis integrals                         :        62
  | Number of centers in integrals                               :        62
  | Number of centers in hamiltonian                             :        62
  | Number of centers in partition table from touching 0-cell    :        62
  | Number of centers in partition table total                   :        62

------------------------------------------------------------
          Begin self-consistency loop: Initialization.

          Date     :  20251111, Time     :  185115.983
------------------------------------------------------------
  Available memory per node after initialize_hartree_non_periodic_ewald [GB]:    224.08
  Available memory per node after initialize_recip_hartree_potential [GB]:    224.08
  * Using 64 tasks for Scalapack Eigenvalue solver.
  Detailed listing of tasks and assigned k-points:
  (for non-periodic systems, the "k-point" denotes an internal label only)
   Task     0 k-point     1 on cca9065
   Task     1 k-point     1 on cca9065
   Task     2 k-point     1 on cca9065
   Task     3 k-point     1 on cca9065
   Task     4 k-point     1 on cca9065
   Task     5 k-point     1 on cca9065
   Task     6 k-point     1 on cca9065
   Task     7 k-point     1 on cca9065
   Task     8 k-point     1 on cca9065
   Task     9 k-point     1 on cca9065
   Task    10 k-point     1 on cca9065
   Task    11 k-point     1 on cca9065
   Task    12 k-point     1 on cca9065
   Task    13 k-point     1 on cca9065
   Task    14 k-point     1 on cca9065
   Task    15 k-point     1 on cca9065
   Task    16 k-point     1 on cca9065
   Task    17 k-point     1 on cca9065
   Task    18 k-point     1 on cca9065
   Task    19 k-point     1 on cca9065
   Task    20 k-point     1 on cca9065
   Task    21 k-point     1 on cca9065
   Task    22 k-point     1 on cca9065
   Task    23 k-point     1 on cca9065
   Task    24 k-point     1 on cca9065
   Task    25 k-point     1 on cca9065
   Task    26 k-point     1 on cca9065
   Task    27 k-point     1 on cca9065
   Task    28 k-point     1 on cca9065
   Task    29 k-point     1 on cca9065
   Task    30 k-point     1 on cca9065
   Task    31 k-point     1 on cca9065
   Task    32 k-point     1 on cca9065
   Task    33 k-point     1 on cca9065
   Task    34 k-point     1 on cca9065
   Task    35 k-point     1 on cca9065
   Task    36 k-point     1 on cca9065
   Task    37 k-point     1 on cca9065
   Task    38 k-point     1 on cca9065
   Task    39 k-point     1 on cca9065
   Task    40 k-point     1 on cca9065
   Task    41 k-point     1 on cca9065
   Task    42 k-point     1 on cca9065
   Task    43 k-point     1 on cca9065
   Task    44 k-point     1 on cca9065
   Task    45 k-point     1 on cca9065
   Task    46 k-point     1 on cca9065
   Task    47 k-point     1 on cca9065
   Task    48 k-point     1 on cca9065
   Task    49 k-point     1 on cca9065
   Task    50 k-point     1 on cca9065
   Task    51 k-point     1 on cca9065
   Task    52 k-point     1 on cca9065
   Task    53 k-point     1 on cca9065
   Task    54 k-point     1 on cca9065
   Task    55 k-point     1 on cca9065
   Task    56 k-point     1 on cca9065
   Task    57 k-point     1 on cca9065
   Task    58 k-point     1 on cca9065
   Task    59 k-point     1 on cca9065
   Task    60 k-point     1 on cca9065
   Task    61 k-point     1 on cca9065
   Task    62 k-point     1 on cca9065
   Task    63 k-point     1 on cca9065
  Tasks:    64 split into      8 X      8 BLACS grid
  Calculating block size based on n_basis =         1458  max_nprow =            8  max_npcol =            8
  ScaLAPACK block size set to:           16
  Allocating        0.281 MB for ovlp
  Allocating        0.281 MB for ham
  Allocating        0.281 MB for eigenvec
  Required Scalapack workspace - INTEGER:            1  REAL:             1
  Available memory per node after initialize_scalapack [GB]:    224.08
  Available memory per node after aims_elsi_init_scf [GB]:    224.08
  Available memory per node after initialize_fixed_grids [GB]:    224.08
  Partitioning the integration grid into batches with parallel hashing+maxmin method.
  | Number of batches:    10425
  | Maximal batch size:     200
  | Minimal batch size:       1
  | Average batch size:      93.989
  | Standard deviation of batch sizes:      28.802

  Integration load balanced across    64 MPI tasks.
  Work distribution over tasks is as follows:
  Task     0 has      15257 integration points.
  Task     1 has      15307 integration points.
  Task     2 has      15341 integration points.
  Task     3 has      15323 integration points.
  Task     4 has      15311 integration points.
  Task     5 has      15381 integration points.
  Task     6 has      15340 integration points.
  Task     7 has      15353 integration points.
  Task     8 has      15280 integration points.
  Task     9 has      15376 integration points.
  Task    10 has      15336 integration points.
  Task    11 has      15243 integration points.
  Task    12 has      15249 integration points.
  Task    13 has      15284 integration points.
  Task    14 has      15413 integration points.
  Task    15 has      15307 integration points.
  Task    16 has      15268 integration points.
  Task    17 has      15377 integration points.
  Task    18 has      15409 integration points.
  Task    19 has      15314 integration points.
  Task    20 has      15274 integration points.
  Task    21 has      15322 integration points.
  Task    22 has      15311 integration points.
  Task    23 has      15318 integration points.
  Task    24 has      15255 integration points.
  Task    25 has      15248 integration points.
  Task    26 has      15324 integration points.
  Task    27 has      15351 integration points.
  Task    28 has      15243 integration points.
  Task    29 has      15287 integration points.
  Task    30 has      15325 integration points.
  Task    31 has      15248 integration points.
  Task    32 has      15313 integration points.
  Task    33 has      15408 integration points.
  Task    34 has      15320 integration points.
  Task    35 has      15285 integration points.
  Task    36 has      15289 integration points.
  Task    37 has      15318 integration points.
  Task    38 has      15330 integration points.
  Task    39 has      15321 integration points.
  Task    40 has      15338 integration points.
  Task    41 has      15310 integration points.
  Task    42 has      15237 integration points.
  Task    43 has      15245 integration points.
  Task    44 has      15306 integration points.
  Task    45 has      15322 integration points.
  Task    46 has      15239 integration points.
  Task    47 has      15317 integration points.
  Task    48 has      15314 integration points.
  Task    49 has      15267 integration points.
  Task    50 has      15350 integration points.
  Task    51 has      15318 integration points.
  Task    52 has      15402 integration points.
  Task    53 has      15236 integration points.
  Task    54 has      15281 integration points.
  Task    55 has      15298 integration points.
  Task    56 has      15309 integration points.
  Task    57 has      15319 integration points.
  Task    58 has      15330 integration points.
  Task    59 has      15281 integration points.
  Task    60 has      15275 integration points.
  Task    61 has      15314 integration points.
  Task    62 has      15344 integration points.
  Task    63 has      15325 integration points.
  Available memory per node after partition_grid [GB]:    224.06
  Initializing partition tables, free-atom densities, potentials, etc. across the integration grid (initialize_grid_storage).
  | initialize_grid_storage: Actual outermost partition radius vs. multipole_radius_free
  | (-- VB: in principle, multipole_radius_free should be larger, hence this output)
  | Species        1: Confinement radius =              6.000000000000000 AA, multipole_radius_free =              6.029870734432609 AA.
  | Species        1: outer_partition_radius set to              6.029870734432609 AA .
  | Species        2: Confinement radius =              6.000000000000000 AA, multipole_radius_free =              6.064445521808699 AA.
  | Species        2: outer_partition_radius set to              6.064445521808699 AA .
  | Species        3: Confinement radius =              6.000000000000000 AA, multipole_radius_free =              6.071692442739658 AA.
  | Species        3: outer_partition_radius set to              6.071692442739658 AA .
  | The sparse table of interatomic distances needs         43.14 kbyte instead of        30.75 kbyte of memory.
  | Using the partition_type stratmann_smoother will reduce your memory usage.
  | Net number of integration points:   979836
  | of which are non-zero points    :   751281
  Available memory per node after initialize_grid_storage_p1 [GB]:    224.06
  Renormalizing the initial density to the exact electron count on the 3D integration grid.
  | Initial density: Formal number of electrons (from input files) :     176.0000000000
  | Integrated number of electrons on 3D grid     :     176.0000390244
  | Charge integration error                      :       0.0000390244
  | Normalization factor for density and gradient :       0.9999997783
  Renormalizing the free-atom superposition density to the exact electron count on the 3D integration grid.
  | Formal number of electrons (from input files) :     176.0000000000
  | Integrated number of electrons on 3D grid     :     176.0000390244
  | Charge integration error                      :       0.0000390244
  | Normalization factor for density and gradient :       0.9999997783
  Obtaining max. number of non-zero basis functions in each batch (get_n_compute_maxes).
  | Maximal number of non-zero basis functions:      603 in task     0
  | Maximal number of non-zero basis functions:      598 in task     1
  | Maximal number of non-zero basis functions:      601 in task     2
  | Maximal number of non-zero basis functions:      592 in task     3
  | Maximal number of non-zero basis functions:      595 in task     4
  | Maximal number of non-zero basis functions:      586 in task     5
  | Maximal number of non-zero basis functions:      593 in task     6
  | Maximal number of non-zero basis functions:      591 in task     7
  | Maximal number of non-zero basis functions:      601 in task     8
  | Maximal number of non-zero basis functions:      599 in task     9
  | Maximal number of non-zero basis functions:      596 in task    10
  | Maximal number of non-zero basis functions:      590 in task    11
  | Maximal number of non-zero basis functions:      594 in task    12
  | Maximal number of non-zero basis functions:      594 in task    13
  | Maximal number of non-zero basis functions:      593 in task    14
  | Maximal number of non-zero basis functions:      589 in task    15
  | Maximal number of non-zero basis functions:      607 in task    16
  | Maximal number of non-zero basis functions:      597 in task    17
  | Maximal number of non-zero basis functions:      613 in task    18
  | Maximal number of non-zero basis functions:      592 in task    19
  | Maximal number of non-zero basis functions:      600 in task    20
  | Maximal number of non-zero basis functions:      596 in task    21
  | Maximal number of non-zero basis functions:      594 in task    22
  | Maximal number of non-zero basis functions:      595 in task    23
  | Maximal number of non-zero basis functions:      595 in task    24
  | Maximal number of non-zero basis functions:      599 in task    25
  | Maximal number of non-zero basis functions:      595 in task    26
  | Maximal number of non-zero basis functions:      597 in task    27
  | Maximal number of non-zero basis functions:      590 in task    28
  | Maximal number of non-zero basis functions:      588 in task    29
  | Maximal number of non-zero basis functions:      594 in task    30
  | Maximal number of non-zero basis functions:      593 in task    31
  | Maximal number of non-zero basis functions:      589 in task    32
  | Maximal number of non-zero basis functions:      594 in task    33
  | Maximal number of non-zero basis functions:      589 in task    34
  | Maximal number of non-zero basis functions:      595 in task    35
  | Maximal number of non-zero basis functions:      585 in task    36
  | Maximal number of non-zero basis functions:      591 in task    37
  | Maximal number of non-zero basis functions:      593 in task    38
  | Maximal number of non-zero basis functions:      595 in task    39
  | Maximal number of non-zero basis functions:      595 in task    40
  | Maximal number of non-zero basis functions:      596 in task    41
  | Maximal number of non-zero basis functions:      596 in task    42
  | Maximal number of non-zero basis functions:      593 in task    43
  | Maximal number of non-zero basis functions:      591 in task    44
  | Maximal number of non-zero basis functions:      590 in task    45
  | Maximal number of non-zero basis functions:      588 in task    46
  | Maximal number of non-zero basis functions:      595 in task    47
  | Maximal number of non-zero basis functions:      602 in task    48
  | Maximal number of non-zero basis functions:      592 in task    49
  | Maximal number of non-zero basis functions:      594 in task    50
  | Maximal number of non-zero basis functions:      591 in task    51
  | Maximal number of non-zero basis functions:      585 in task    52
  | Maximal number of non-zero basis functions:      593 in task    53
  | Maximal number of non-zero basis functions:      592 in task    54
  | Maximal number of non-zero basis functions:      598 in task    55
  | Maximal number of non-zero basis functions:      599 in task    56
  | Maximal number of non-zero basis functions:      597 in task    57
  | Maximal number of non-zero basis functions:      594 in task    58
  | Maximal number of non-zero basis functions:      594 in task    59
  | Maximal number of non-zero basis functions:      591 in task    60
  | Maximal number of non-zero basis functions:      586 in task    61
  | Maximal number of non-zero basis functions:      593 in task    62
  | Maximal number of non-zero basis functions:      592 in task    63
  Available memory per node after get_n_compute_maxes_p1 [GB]:    224.06
  Hamiltonian matrix size:
  | Size of matrix non-packed:               1063611
  | Size of matrix packed:          652708
  Available memory per node after allocate_matrices [GB]:    223.86
  Available memory per node after init_comm_sparse_local_matrix_scalapack [GB]:    223.85
  Integrating Hamiltonian matrix: batch-based integration.
  Time summed over all CPUs for integration: real work       30.927 s, elapsed       32.492 s
          Integrate hamiltonian matrix                 :  max(cpu_time)    wall_clock(cpu1)
          | Total time                                  :        0.523 s           0.523 s
  Available memory per node after integrate hamiltonian matrix [GB]:    223.51
  Integrating overlap matrix.
  Time summed over all CPUs for integration: real work       19.099 s, elapsed       20.139 s
  Available memory per node after integrate ovlp matrix [GB]:    223.10
  Deallocating overlap matrix.
  Available memory per node after save_overlap_scalapack [GB]:    223.37

  Updating Kohn-Sham eigenvalues and eigenvectors using ELSI and the ELPA eigensolver.
      Allocating      0.295 MB for copy
      Deallocating copy
  Overlap matrix is not singular
  | Lowest and highest eigenvalues :  0.1265E-03,  0.1287E+02
  Finished singularity check of overlap matrix
  | Time :     0.049 s
  Starting ELPA eigensolver
  Finished Cholesky decomposition
  | Time :     0.011 s
      Allocating      0.344 MB for tmp
      Deallocating tmp
  Finished transformation to standard eigenproblem
  | Time :     0.009 s
  Finished solving standard eigenproblem
  | Time :     0.063 s
      Allocating      0.295 MB for tmp
      Deallocating tmp
  Finished back-transformation of eigenvectors
  | Time :     0.003 s

  Obtaining occupation numbers and electronic chemical potential using ELSI.
  | Note that, for insulating systems, the printed 'chemical potential' value is not uniquely defined.
  | It can be anywhere in the energy gap, as long as it correctly separates occupied and unoccupied states.
  | In systems with a gap, the physically relevant chemical potential is the VBM or HOMO.

  | Chemical potential (Fermi level):    -7.66465159 eV
  Available memory per node after advance_KS_solution [GB]:    223.45
  Writing Kohn-Sham eigenvalues.

  State    Occupation    Eigenvalue [Ha]    Eigenvalue [eV]
      1       2.00000         -19.023307         -517.65051
      2       2.00000         -19.005591         -517.16845
      3       2.00000         -10.178107         -276.96037
      4       2.00000         -10.170534         -276.75432
      5       2.00000         -10.169939         -276.73813
      6       2.00000         -10.169860         -276.73598
      7       2.00000         -10.169854         -276.73581
      8       2.00000         -10.169834         -276.73526
      9       2.00000         -10.169816         -276.73477
     10       2.00000         -10.169785         -276.73393
     11       2.00000         -10.169775         -276.73365
     12       2.00000         -10.169758         -276.73320
     13       2.00000         -10.169746         -276.73287
     14       2.00000         -10.169714         -276.73201
     15       2.00000         -10.169691         -276.73136
     16       2.00000         -10.169668         -276.73073
     17       2.00000         -10.169636         -276.72989
     18       2.00000         -10.169625         -276.72958
     19       2.00000         -10.169612         -276.72923
     20       2.00000         -10.169592         -276.72867
     21       2.00000         -10.169571         -276.72810
     22       2.00000         -10.136696         -275.83353
     23       2.00000          -1.154919          -31.42693
     24       2.00000          -1.083869          -29.49356
     25       2.00000          -0.954328          -25.96859
     26       2.00000          -0.949429          -25.83529
     27       2.00000          -0.941370          -25.61597
     28       2.00000          -0.930282          -25.31425
     29       2.00000          -0.916391          -24.93628
     30       2.00000          -0.899995          -24.49011
     31       2.00000          -0.881545          -23.98807
     32       2.00000          -0.861597          -23.44524
     33       2.00000          -0.840778          -22.87875
     34       2.00000          -0.817242          -22.23828
[...]
     54       2.00000          -0.394660          -10.73923
     55       2.00000          -0.391394          -10.65038
     56       2.00000          -0.384237          -10.45563
     57       2.00000          -0.380786          -10.36171
     58       2.00000          -0.377139          -10.26246
     59       2.00000          -0.368322          -10.02256
     60       2.00000          -0.360954           -9.82205
     61       2.00000          -0.356381           -9.69761
     62       2.00000          -0.352201           -9.58389
     63       2.00000          -0.348516           -9.48361
     64       2.00000          -0.342772           -9.32731
     65       2.00000          -0.334950           -9.11445
     66       2.00000          -0.330254           -8.98668
     67       2.00000          -0.328457           -8.93777
     68       2.00000          -0.319390           -8.69105
     69       2.00000          -0.318425           -8.66478
     70       2.00000          -0.312066           -8.49175
     71       2.00000          -0.308814           -8.40324
     72       2.00000          -0.303579           -8.26080
     73       2.00000          -0.299721           -8.15582
     74       2.00000          -0.297300           -8.08995
     75       2.00000          -0.295189           -8.03251
     76       2.00000          -0.290191           -7.89650
     77       2.00000          -0.285552           -7.77027
     78       2.00000          -0.284463           -7.74064
     79       2.00000          -0.282059           -7.67522
     80       2.00000          -0.277733           -7.55751
     81       2.00000          -0.274472           -7.46877
     82       2.00000          -0.271173           -7.37900
     83       2.00000          -0.268570           -7.30816
     84       2.00000          -0.267266           -7.27267
     85       2.00000          -0.264286           -7.19160
     86       2.00000          -0.263300           -7.16474
     87       2.00000          -0.263004           -7.15670
     88       2.00000          -0.233718           -6.35980
     89       0.00000          -0.043160           -1.17444
     90       0.00000          -0.015467           -0.42089
     91       0.00000          -0.008361           -0.22751
     92       0.00000          -0.006138           -0.16702
     93       0.00000          -0.003667           -0.09979
     94       0.00000          -0.003484           -0.09480
     95       0.00000          -0.000388           -0.01055
     96       0.00000           0.002708            0.07370
     97       0.00000           0.003351            0.09120
     98       0.00000           0.007876            0.21433
     99       0.00000           0.012551            0.34153
    100       0.00000           0.013931            0.37907
    101       0.00000           0.019305            0.52530
    102       0.00000           0.026350            0.71702
    103       0.00000           0.028358            0.77165
    104       0.00000           0.030389            0.82694
    105       0.00000           0.040997            1.11559
    106       0.00000           0.042487            1.15612
    107       0.00000           0.043870            1.19376
    108       0.00000           0.044197            1.20266
    109       0.00000           0.046575            1.26738
    110       0.00000           0.050904            1.38517
    111       0.00000           0.052795            1.43664
    112       0.00000           0.058060            1.57988
    113       0.00000           0.060166            1.63720
    114       0.00000           0.060910            1.65744
    115       0.00000           0.067718            1.84270
    116       0.00000           0.069322            1.88634
    117       0.00000           0.075753            2.06134
    118       0.00000           0.078825            2.14493
    119       0.00000           0.080580            2.19269
    120       0.00000           0.085504            2.32670
    121       0.00000           0.088446            2.40673
    122       0.00000           0.093235            2.53705
    123       0.00000           0.099280            2.70155
    124       0.00000           0.100009            2.72140
    125       0.00000           0.106224            2.89051
    126       0.00000           0.109112            2.96909
    127       0.00000           0.112729            3.06751
    128       0.00000           0.118144            3.21487
    129       0.00000           0.119746            3.25846
    130       0.00000           0.123254            3.35392
    131       0.00000           0.125960            3.42753
    132       0.00000           0.130586            3.55341
    133       0.00000           0.133858            3.64246
    134       0.00000           0.135699            3.69255
    135       0.00000           0.136975            3.72727
    136       0.00000           0.138345            3.76457
    137       0.00000           0.141532            3.85129
    138       0.00000           0.143671            3.90949
    139       0.00000           0.146203            3.97840
    140       0.00000           0.149890            4.07871
    141       0.00000           0.150912            4.10653
    142       0.00000           0.153284            4.17107
    143       0.00000           0.155492            4.23115
    144       0.00000           0.161347            4.39047
    145       0.00000           0.163540            4.45016
    146       0.00000           0.166011            4.51740
    147       0.00000           0.169140            4.60254
    148       0.00000           0.172575            4.69600
    149       0.00000           0.173775            4.72866
    150       0.00000           0.174322            4.74354
    151       0.00000           0.176374            4.79939
    152       0.00000           0.177638            4.83377
    153       0.00000           0.178771            4.86462
    154       0.00000           0.180364            4.90796
    155       0.00000           0.183311            4.98814
    156       0.00000           0.186037            5.06231
    157       0.00000           0.187550            5.10351
    158       0.00000           0.191633            5.21459
    159       0.00000           0.192845            5.24757
    160       0.00000           0.194853            5.30221
    161       0.00000           0.197624            5.37762
    162       0.00000           0.200595            5.45847
    163       0.00000           0.203758            5.54454
    164       0.00000           0.204914            5.57599
    165       0.00000           0.206956            5.63156
    166       0.00000           0.209773            5.70822
    167       0.00000           0.212428            5.78045
    168       0.00000           0.214509            5.83707
    169       0.00000           0.217903            5.92945
    170       0.00000           0.220966            6.01280
    171       0.00000           0.225757            6.14317
    172       0.00000           0.226054            6.15124
    173       0.00000           0.226638            6.16715
    174       0.00000           0.230475            6.27154
    175       0.00000           0.231958            6.31190
    176       0.00000           0.232529            6.32743
    177       0.00000           0.233439            6.35219
    178       0.00000           0.237005            6.44925
    179       0.00000           0.237441            6.46111
    180       0.00000           0.240322            6.53949
    181       0.00000           0.240779            6.55194
    182       0.00000           0.243035            6.61333
    183       0.00000           0.247817            6.74343
    184       0.00000           0.248997            6.77555
    185       0.00000           0.251392            6.84073
    186       0.00000           0.252357            6.86699
    187       0.00000           0.254889            6.93588
    188       0.00000           0.257607            7.00986
    189       0.00000           0.259840            7.07060
    190       0.00000           0.261341            7.11145
    191       0.00000           0.263610            7.17318
    192       0.00000           0.264951            7.20968
    193       0.00000           0.267533            7.27994
    194       0.00000           0.269096            7.32247
    195       0.00000           0.273616            7.44548
    196       0.00000           0.276076            7.51242
    197       0.00000           0.281321            7.65513
    198       0.00000           0.282118            7.67682
    199       0.00000           0.284878            7.75192
    200       0.00000           0.287646            7.82725
    201       0.00000           0.292026            7.94642
    202       0.00000           0.294933            8.02552
    203       0.00000           0.296078            8.05669
    204       0.00000           0.297915            8.10669
    205       0.00000           0.300662            8.18143
    206       0.00000           0.302654            8.23564
    207       0.00000           0.303345            8.25445
    208       0.00000           0.307255            8.36083
    209       0.00000           0.308349            8.39060
    210       0.00000           0.308944            8.40679
    211       0.00000           0.311262            8.46987
    212       0.00000           0.315045            8.57282
    213       0.00000           0.321494            8.74830
    214       0.00000           0.328347            8.93479

  Highest occupied state (VBM) at     -6.35980279 eV
  | Occupation number:      2.00000000

  Lowest unoccupied state (CBM) at    -1.17444077 eV
  | Occupation number:      0.00000000

  Overall HOMO-LUMO gap:      5.18536202 eV.

  | Chemical Potential                          :    -3.76712178 eV
  | Note that, for insulating systems, the printed 'chemical potential' value is not uniquely defined.
  | It can be anywhere in the energy gap, as long as it correctly separates occupied and unoccupied states.
  | In systems with a gap, the physically relevant chemical potential is the VBM or HOMO.

  Self-consistency cycle converged.


------------------------------------------------------------
  End self-consistency iteration #    14       :  max(cpu_time)    wall_clock(cpu1)
  | Time for this iteration                     :        2.244 s           2.244 s
  | Charge density update                       :        0.000 s           0.000 s
  | Density mixing                              :        0.010 s           0.010 s
  | Hartree multipole update                    :        0.005 s           0.005 s
  | Hartree multipole summation                 :        0.211 s           0.211 s
  | Integration                                 :        0.524 s           0.525 s
  | Solution of K.-S. eqns.                     :        0.085 s           0.085 s
  | Total energy evaluation                     :        0.000 s           0.000 s

  Partial memory accounting:
  | Current value for overall tracked memory usage:
  |   Minimum:       18.527 MB (on task 53)
  |   Maximum:       18.779 MB (on task 18)
  |   Average:       18.628 MB
  | Peak value for overall tracked memory usage:
  |   Minimum:       45.812 MB (on task 36 after allocating wave)
  |   Maximum:       47.010 MB (on task 18 after allocating wave)
  |   Average:       46.196 MB
  | Largest tracked array allocation so far:
  |   Minimum:        4.980 MB (all_coords on task  0)
  |   Maximum:        7.092 MB (all_coords on task 22)
  |   Average:        5.013 MB
  Note:  These values currently only include a subset of arrays which are explicitly tracked.
  The "true" memory usage will be greater.
------------------------------------------------------------

  Energy and forces in a compact form:
  | Total energy uncorrected      :         -0.254844516930846E+05 eV
  | Total energy corrected        :         -0.254844516930846E+05 eV  <-- do not rely on this value for anything but (periodic) metals
  | Electronic free energy        :         -0.254844516930846E+05 eV

  ------------------------------------ 
  Start decomposition of the XC Energy 
  ------------------------------------ 
  X and C from original XC functional choice 
  Hartree-Fock Energy :          0.000000000 Ha              0.000000000 eV
  X Energy            :       -133.783946377 Ha          -3640.446404789 eV
  C Energy            :         -5.748739185 Ha           -156.431152354 eV
  XC Energy w/o HF    :       -139.532685562 Ha          -3796.877557143 eV
  Total XC Energy     :       -139.532685562 Ha          -3796.877557143 eV
  ------------------------------------ 
  LDA X and C from self-consistent density 
  X Energy LDA        :       -121.199885221 Ha          -3298.016678101 eV
  C Energy LDA        :        -11.039461399 Ha           -300.399028803 eV
  ------------------------------------ 
  End decomposition of the XC Energy 
  ------------------------------------ 

------------------------------------------------------------

------------------------------------------------------------------------------
  Final output of selected total energy values:

  The following output summarizes some interesting total energy values
  at the end of a run (AFTER all relaxation, molecular dynamics, etc.).

  | Total energy of the DFT / Hartree-Fock s.c.f. calculation      :         -25484.451693085 eV
  | Final zero-broadening corrected energy (caution - metals only) :         -25484.451693085 eV
  | For reference only, the value of 1 Hartree used in FHI-aims is :             27.211384500 eV

  Before relying on these values, please be sure to understand exactly which
  total energy value is referred to by a given number. Different objects may
  all carry the same name 'total energy'. Definitions:

  Total energy of the DFT / Hartree-Fock s.c.f. calculation:
  | Note that this energy does not include ANY quantities calculated after the
  | s.c.f. cycle, in particular not ANY RPA, MP2, etc. many-body perturbation terms.

  Final zero-broadening corrected energy:
  | For metallic systems only, a broadening of the occupation numbers at the Fermi
  | level can be extrapolated back to zero broadening by an electron-gas inspired
  | formula. For all systems that are not real metals, this value can be
  | meaningless and should be avoided.

------------------------------------------------------------------------------
  Methods described in the following list of references were used in this FHI-aims run.
  If you publish the results, please make sure to cite these reference if they apply.
  FHI-aims is an academic code, and for our developers (often, Ph.D. students
  and postdocs), scientific credit in the community is essential.
  Thank you for helping us!

  For any use of FHI-aims, please cite:

    Volker Blum, Ralf Gehrke, Felix Hanke, Paula Havu, Ville Havu,
    Xinguo Ren, Karsten Reuter, and Matthias Scheffler
    'Ab initio molecular simulations with numeric atom-centered orbitals'
    Computer Physics Communications 180, 2175-2196 (2009)
    http://doi.org/10.1016/j.cpc.2009.06.022


  The ELSI infrastructure was used in your run to solve the Kohn-Sham electronic structure.
  Please check out https://wordpress.elsi-interchange.org to learn more.
  If scalability is important for your project, please acknowledge ELSI by citing:

    V. W-z. Yu, F. Corsetti, A. Garcia, W. P. Huhn, M. Jacquelin, W. Jia,
    B. Lange, L. Lin, J. Lu, W. Mi, A. Seifitokaldani, A. Vazquez-Mayagoitia,
    C. Yang, H. Yang, and V. Blum
    'ELSI: A unified software interface for Kohn-Sham electronic structure solvers'
    Computer Physics Communications 222, 267-285 (2018).
    http://doi.org/10.1016/j.cpc.2017.09.007


  For the real-space grid partitioning and parallelization used in this calculation, please cite:

    Ville Havu, Volker Blum, Paula Havu, and Matthias Scheffler,
    'Efficient O(N) integration for all-electron electronic structure calculation'
    'using numerically tabulated basis functions'
    Journal of Computational Physics 228, 8367-8379 (2009).
    http://doi.org/10.1016/j.jcp.2009.08.008


  The high-level electronic structure method used in your calculation
  employed our efficient localized resolution of identity for the Coulomb operator.
  Some calculations, especially large-scale hybrid density functional theory,
  are only possible thanks to this development. For this feature, please cite:

    Arvid Ihrig, Juergen Wieferink, Igor Ying Zhang, Matti Ropo, Xinguo Ren,
    Patrick Rinke, Matthias Scheffler, and Volker Blum,
    'Accurate localized resolution of identity approach for linear-scaling
    hybrid density functionals and for many-body perturbation theory'
    New Journal of Physics 117, 093020 (2015).
    http://doi.org/10.1088/1367-2630/17/9/093020

  Of course, there are many other important community references, e.g., those cited in the
  above references. Our list is limited to references that describe implementations in the
  FHI-aims code. The reason is purely practical (length of this list) - please credit others as well.
------------------------------------------------------------
Warnings summary:

At least    2 warnings were raised during execution.

------------------------------------------------------------
          Leaving FHI-aims.
          Date     :  20251112, Time     :  091539.383

          Computational steps:
          | Number of self-consistency cycles          :           14
          | Number of SCF (re)initializations          :            1

          Detailed time accounting                     :  max(cpu_time)    wall_clock(cpu1)
          | Total time                                  :       31.506 s          31.512 s
          | Preparation time                            :        0.151 s           0.150 s
          | Boundary condition initalization            :        0.006 s           0.007 s
          | Grid partitioning                           :        0.835 s           0.836 s
          | Preloading free-atom quantities on grid     :        0.220 s           0.220 s
          | Free-atom superposition energy              :        0.025 s           0.026 s
          | Total time for integrations                 :        8.193 s           8.193 s
          | Total time for solution of K.-S. equations  :        1.345 s           1.346 s
          | Total time for density update               :       16.050 s          16.052 s
          | Total time for mixing                       :        0.094 s           0.091 s
          | Total time for Hartree multipole update     :        0.072 s           0.073 s
          | Total time for Hartree multipole sum        :        2.993 s           2.994 s
          | Total time for total energy evaluation      :        0.001 s           0.000 s
          | Total time for scaled ZORA corrections      :        0.000 s           0.000 s

          Partial memory accounting:
          | Residual value for overall tracked memory usage across tasks:     0.000000 MB (should be 0.000000 MB)
          | Peak values for overall tracked memory usage:
          |   Minimum:       45.812 MB (on task 36 after allocating wave)
          |   Maximum:       47.010 MB (on task 18 after allocating wave)
          |   Average:       46.196 MB
          | Largest tracked array allocation:
          |   Minimum:        4.980 MB (all_coords on task  0)
          |   Maximum:        7.092 MB (all_coords on task 22)
          |   Average:        5.013 MB
          Note:  These values currently only include a subset of arrays which are explicitly tracked.
          The "true" memory usage will be greater.

          Have a nice day.
------------------------------------------------------------
