------------------------------------------------------------
          Invoking FHI-aims ...

          When using FHI-aims, please cite the following reference:

            Volker Blum, Ralf Gehrke, Felix Hanke, Paula Havu,
            Ville Havu, Xinguo Ren, Karsten Reuter, and Matthias Scheffler,
            'Ab Initio Molecular Simulations with Numeric Atom-Centered Orbitals',
            Computer Physics Communications 180, 2175-2196 (2009)

          In addition, many other developments in FHI-aims are likely important for
          your particular application. If so, please cite them. A partial list of references
          is written at the end of this file. Thank you for giving credit to the authors
          of these developments.

          For general information about FHI-aims please find us at

            https://fhi-aims.org

          Online tutorials can be found at

            https://fhi-aims-club.gitlab.io/tutorials/tutorials-overview/

          For any questions about FHI-aims, please visit our slack channel at

            https://fhi-aims.slack.com

          and our main development and support site at

            https://aims-git.rz-berlin.mpg.de .

          The latter site, in particular, has a wiki to collect information, as well
          as an issue tracker to log discussions, suggest improvements, and report issues
          or bugs. https://aims-git.rz-berlin.mpg.de is also the main development site
          of the project and all new and updated code versions can be obtained there.
          Please send an email to aims-coordinators@fhi-berlin.mpg.de and we will add
          you to these sites. They are for you and everyone is welcome there.

------------------------------------------------------------



  Date     :  20250628, Time     :  164833.597
  Time zero on CPU 1             :   0.669662800000000E+01  s.
  Internal wall clock time zero  :           520361313.597  s.

  FHI-aims created a unique identifier for this run for later identification
  aims_uuid : E8552C9E-5924-4BD7-ABA6-3DEF135D8BC2

  Build configuration of the current instance of FHI-aims
  -------------------------------------------------------
  FHI-aims version      : 250403
  Commit number         : 316072d87
  CMake host system     : Linux-5.14.21-150400.24.46_12.0.70-cray_shasta_c
  CMake version         : 3.20.4
  Fortran compiler      : /opt/cray/pe/craype/2.7.19/bin/ftn (GNU) version 11.2.0
  Fortran compiler flags: -O2 -fPIC -fallow-argument-mismatch -ffree-line-length-none
  C compiler            : /opt/cray/pe/craype/2.7.19/bin/cc (GNU) version 11.2.0
  C compiler flags      : -O2
  C++ compiler          : /opt/cray/pe/gcc/11.2.0/bin/c++ (GNU) version 11.2.0
  C++ compiler flags    : -O2
  HIP compiler          :
  HIP compiler flags    :
  HIP GPU arch          :
  Using MPI
  Using ScaLAPACK
  Using LibXC
  Using i-PI
  Using RLSY
  Linking against:

  Using      256 parallel tasks.
  Task        0 on host nid002092 reporting.
  Task        1 on host nid002092 reporting.
  Task        2 on host nid002092 reporting.
  Task        3 on host nid002092 reporting.
  Task        4 on host nid002092 reporting.
  Task        5 on host nid002092 reporting.
  Task        6 on host nid002092 reporting.
  Task        7 on host nid002092 reporting.
  Task        8 on host nid002092 reporting.
  Task        9 on host nid002092 reporting.
  Task       10 on host nid002092 reporting.
  Task       11 on host nid002092 reporting.
  Task       12 on host nid002092 reporting.
  Task       13 on host nid002092 reporting.
  Task       14 on host nid002092 reporting.
  Task       15 on host nid002092 reporting.
  Task       16 on host nid002092 reporting.
  Task       17 on host nid002092 reporting.
  Task       18 on host nid002092 reporting.
  Task       19 on host nid002092 reporting.
  Task       20 on host nid002092 reporting.
  Task       21 on host nid002092 reporting.
  Task       22 on host nid002092 reporting.
  Task       23 on host nid002092 reporting.
  Task       24 on host nid002092 reporting.
  Task       25 on host nid002092 reporting.
  Task       26 on host nid002092 reporting.
  Task       27 on host nid002092 reporting.
  Task       28 on host nid002092 reporting.
  Task       29 on host nid002092 reporting.
  Task       30 on host nid002092 reporting.
  Task       31 on host nid002092 reporting.
  Task       32 on host nid002092 reporting.
  Task       33 on host nid002092 reporting.
  Task       34 on host nid002092 reporting.
  Task       35 on host nid002092 reporting.
  Task       36 on host nid002092 reporting.
  Task       37 on host nid002092 reporting.
  Task       38 on host nid002092 reporting.
  Task       39 on host nid002092 reporting.
  Task       40 on host nid002092 reporting.
  Task       41 on host nid002092 reporting.
  Task       42 on host nid002092 reporting.
  Task       43 on host nid002092 reporting.
  Task       44 on host nid002092 reporting.
  Task       45 on host nid002092 reporting.
  Task       46 on host nid002092 reporting.
  Task       47 on host nid002092 reporting.
  Task       48 on host nid002092 reporting.
  Task       49 on host nid002092 reporting.
  Task       50 on host nid002092 reporting.
  Task       51 on host nid002092 reporting.
  Task       52 on host nid002092 reporting.
  Task       53 on host nid002092 reporting.
  Task       54 on host nid002092 reporting.
  Task       55 on host nid002092 reporting.
  Task       56 on host nid002092 reporting.
  Task       57 on host nid002092 reporting.
  Task       58 on host nid002092 reporting.
  Task       59 on host nid002092 reporting.
  Task       60 on host nid002092 reporting.
  Task       61 on host nid002092 reporting.
  Task       62 on host nid002092 reporting.
  Task       63 on host nid002092 reporting.
  Task       64 on host nid002092 reporting.
  Task       65 on host nid002092 reporting.
  Task       66 on host nid002092 reporting.
  Task       67 on host nid002092 reporting.
  Task       68 on host nid002092 reporting.
  Task       69 on host nid002092 reporting.
  Task       70 on host nid002092 reporting.
  Task       71 on host nid002092 reporting.
  Task       72 on host nid002092 reporting.
  Task       73 on host nid002092 reporting.
  Task       74 on host nid002092 reporting.
  Task       75 on host nid002092 reporting.
  Task       76 on host nid002092 reporting.
  Task       77 on host nid002092 reporting.
  Task       78 on host nid002092 reporting.
  Task       79 on host nid002092 reporting.
  Task       80 on host nid002092 reporting.
  Task       81 on host nid002092 reporting.
  Task       82 on host nid002092 reporting.
  Task       83 on host nid002092 reporting.
  Task       84 on host nid002092 reporting.
  Task       85 on host nid002092 reporting.
  Task       86 on host nid002092 reporting.
  Task       87 on host nid002092 reporting.
  Task       88 on host nid002092 reporting.
  Task       89 on host nid002092 reporting.
  Task       90 on host nid002092 reporting.
  Task       91 on host nid002092 reporting.
  Task       92 on host nid002092 reporting.
  Task       93 on host nid002092 reporting.
  Task       94 on host nid002092 reporting.
  Task       95 on host nid002092 reporting.
  Task       96 on host nid002092 reporting.
  Task       97 on host nid002092 reporting.
  Task       98 on host nid002092 reporting.
  Task       99 on host nid002092 reporting.
  Task      100 on host nid002092 reporting.
  Task      101 on host nid002092 reporting.
  Task      102 on host nid002092 reporting.
  Task      103 on host nid002092 reporting.
  Task      104 on host nid002092 reporting.
  Task      105 on host nid002092 reporting.
  Task      106 on host nid002092 reporting.
  Task      107 on host nid002092 reporting.
  Task      108 on host nid002092 reporting.
  Task      109 on host nid002092 reporting.
  Task      110 on host nid002092 reporting.
  Task      111 on host nid002092 reporting.
  Task      112 on host nid002092 reporting.
  Task      113 on host nid002092 reporting.
  Task      114 on host nid002092 reporting.
  Task      115 on host nid002092 reporting.
  Task      116 on host nid002092 reporting.
  Task      117 on host nid002092 reporting.
  Task      118 on host nid002092 reporting.
  Task      119 on host nid002092 reporting.
  Task      120 on host nid002092 reporting.
  Task      121 on host nid002092 reporting.
  Task      122 on host nid002092 reporting.
  Task      123 on host nid002092 reporting.
  Task      124 on host nid002092 reporting.
  Task      125 on host nid002092 reporting.
  Task      126 on host nid002092 reporting.
  Task      127 on host nid002092 reporting.
  Task      128 on host nid002128 reporting.
  Task      129 on host nid002128 reporting.
  Task      130 on host nid002128 reporting.
  Task      131 on host nid002128 reporting.
  Task      132 on host nid002128 reporting.
  Task      133 on host nid002128 reporting.
  Task      134 on host nid002128 reporting.
  Task      135 on host nid002128 reporting.
  Task      136 on host nid002128 reporting.
  Task      137 on host nid002128 reporting.
  Task      138 on host nid002128 reporting.
  Task      139 on host nid002128 reporting.
  Task      140 on host nid002128 reporting.
  Task      141 on host nid002128 reporting.
  Task      142 on host nid002128 reporting.
  Task      143 on host nid002128 reporting.
  Task      144 on host nid002128 reporting.
  Task      145 on host nid002128 reporting.
  Task      146 on host nid002128 reporting.
  Task      147 on host nid002128 reporting.
  Task      148 on host nid002128 reporting.
  Task      149 on host nid002128 reporting.
  Task      150 on host nid002128 reporting.
  Task      151 on host nid002128 reporting.
  Task      152 on host nid002128 reporting.
  Task      153 on host nid002128 reporting.
  Task      154 on host nid002128 reporting.
  Task      155 on host nid002128 reporting.
  Task      156 on host nid002128 reporting.
  Task      157 on host nid002128 reporting.
  Task      158 on host nid002128 reporting.
  Task      159 on host nid002128 reporting.
  Task      160 on host nid002128 reporting.
  Task      161 on host nid002128 reporting.
  Task      162 on host nid002128 reporting.
  Task      163 on host nid002128 reporting.
  Task      164 on host nid002128 reporting.
  Task      165 on host nid002128 reporting.
  Task      166 on host nid002128 reporting.
  Task      167 on host nid002128 reporting.
  Task      168 on host nid002128 reporting.
  Task      169 on host nid002128 reporting.
  Task      170 on host nid002128 reporting.
  Task      171 on host nid002128 reporting.
  Task      172 on host nid002128 reporting.
  Task      173 on host nid002128 reporting.
  Task      174 on host nid002128 reporting.
  Task      175 on host nid002128 reporting.
  Task      176 on host nid002128 reporting.
  Task      177 on host nid002128 reporting.
  Task      178 on host nid002128 reporting.
  Task      179 on host nid002128 reporting.
  Task      180 on host nid002128 reporting.
  Task      181 on host nid002128 reporting.
  Task      182 on host nid002128 reporting.
  Task      183 on host nid002128 reporting.
  Task      184 on host nid002128 reporting.
  Task      185 on host nid002128 reporting.
  Task      186 on host nid002128 reporting.
  Task      187 on host nid002128 reporting.
  Task      188 on host nid002128 reporting.
  Task      189 on host nid002128 reporting.
  Task      190 on host nid002128 reporting.
  Task      191 on host nid002128 reporting.
  Task      192 on host nid002128 reporting.
  Task      193 on host nid002128 reporting.
  Task      194 on host nid002128 reporting.
  Task      195 on host nid002128 reporting.
  Task      196 on host nid002128 reporting.
  Task      197 on host nid002128 reporting.
  Task      198 on host nid002128 reporting.
  Task      199 on host nid002128 reporting.
  Task      200 on host nid002128 reporting.
  Task      201 on host nid002128 reporting.
  Task      202 on host nid002128 reporting.
  Task      203 on host nid002128 reporting.
  Task      204 on host nid002128 reporting.
  Task      205 on host nid002128 reporting.
  Task      206 on host nid002128 reporting.
  Task      207 on host nid002128 reporting.
  Task      208 on host nid002128 reporting.
  Task      209 on host nid002128 reporting.
  Task      210 on host nid002128 reporting.
  Task      211 on host nid002128 reporting.
  Task      212 on host nid002128 reporting.
  Task      213 on host nid002128 reporting.
  Task      214 on host nid002128 reporting.
  Task      215 on host nid002128 reporting.
  Task      216 on host nid002128 reporting.
  Task      217 on host nid002128 reporting.
  Task      218 on host nid002128 reporting.
  Task      219 on host nid002128 reporting.
  Task      220 on host nid002128 reporting.
  Task      221 on host nid002128 reporting.
  Task      222 on host nid002128 reporting.
  Task      223 on host nid002128 reporting.
  Task      224 on host nid002128 reporting.
  Task      225 on host nid002128 reporting.
  Task      226 on host nid002128 reporting.
  Task      227 on host nid002128 reporting.
  Task      228 on host nid002128 reporting.
  Task      229 on host nid002128 reporting.
  Task      230 on host nid002128 reporting.
  Task      231 on host nid002128 reporting.
  Task      232 on host nid002128 reporting.
  Task      233 on host nid002128 reporting.
  Task      234 on host nid002128 reporting.
  Task      235 on host nid002128 reporting.
  Task      236 on host nid002128 reporting.
  Task      237 on host nid002128 reporting.
  Task      238 on host nid002128 reporting.
  Task      239 on host nid002128 reporting.
  Task      240 on host nid002128 reporting.
  Task      241 on host nid002128 reporting.
  Task      242 on host nid002128 reporting.
  Task      243 on host nid002128 reporting.
  Task      244 on host nid002128 reporting.
  Task      245 on host nid002128 reporting.
  Task      246 on host nid002128 reporting.
  Task      247 on host nid002128 reporting.
  Task      248 on host nid002128 reporting.
  Task      249 on host nid002128 reporting.
  Task      250 on host nid002128 reporting.
  Task      251 on host nid002128 reporting.
  Task      252 on host nid002128 reporting.
  Task      253 on host nid002128 reporting.
  Task      254 on host nid002128 reporting.
  Task      255 on host nid002128 reporting.

  Obtaining array dimensions for all initial allocations:
  
  -----------------------------------------------------------------------
  Parsing control.in (first pass over file, find array dimensions only).
  The contents of control.in will be repeated verbatim below
  unless switched off by setting 'verbatim_writeout .false.' .
  in the first line of control.in .
  -----------------------------------------------------------------------
  
  #===============================================================================
  # Created using the Atomic Simulation Environment (ASE)
  
  # Sat Jun 28 16:48:29 2025
  
  #===============================================================================
  xc                                 PBE
  output_level                       full
  relativistic                       atomic_zora scalar
  occupation_type                    gaussian 0.01
  mixer                              pulay
  n_max_pulay                        10
  KS_method                          parallel
  RI_method                          LVL
  collect_eigenvectors               .true.
  density_update_method              density_matrix
  atomic_solver_xc                   PBE
  basis_threshold                    1e-05
  override_illconditioning           .true.
  override_initial_charge_check      .true.
  use_2d_corr                        .false.
  qm_embedding_mo_localise           .true.
  qm_embedding_calc                  1
  charge                             -0.0
  #===============================================================================
  
  ################################################################################
  #
  #  FHI-aims code project
  # Igor Ying Zhang and Xinguo Ren, Fritz Haber Institute Berlin, 2012
  #
  #  Suggested "NAO-VCC-5Z" defaults for O atom (to be pasted into control.in file)
  #
  #  Please cite:
  #
  #  Igor Ying Zhang, Xinguo Ren, Patrick Rinke, Volker Blum, and Matthias Scheffler,
  #  "Numeric atom-centered-orbital basis sets with valence-correlation consistency from H to Ar"
  #  New Journal of Physics 15, 123033 (2013).
  #  http://dx.doi.org/10.1088/1367-2630/15/12/123033
  #
  ################################################################################
    species        O
  #     set basis set reference for FHI-aims output
      cite_reference NAO-VCC-2013
  #     global species definitions
      nucleus             8
      mass                15.9994
  #
      l_hartree           6
  #
      cut_pot             4.0  2.0  1.0
      basis_dep_cutoff    0e-4
  #
      radial_base         36 7.0
      radial_multiplier   2
      angular_grids       specified
        division   0.1817   50
        division   0.3417  110
        division   0.4949  194
        division   0.6251  302
        division   0.8014  434
        division   0.8507  590
  #      division   0.8762  770
  #      division   0.9023  974
  #      division   1.2339 1202
  #      outer_grid 974
        outer_grid 770
  #      outer_grid  434
  ################################################################################
  #
  #  Definition of "minimal" basis
  #
  ################################################################################
  #     valence basis states
      valence      2  s   2.
      valence      2  p   4.
  #     ion occupancy
      ion_occ      2  s   1.
      ion_occ      2  p   3.
  ################################################################################
  
   basis_acc              1e-04
  #============================================
  # Optimization in      O for       NAO-VCC-5Z
  #============================================
  # (sp) correlation set
   hydro     1     s      2.09469909
   hydro     1     s      3.53618948
   hydro     1     s      5.96965744
   hydro     1     s     10.07774333
   hydro     2     p      2.20837049
   hydro     2     p      3.61767613
   hydro     2     p      5.92635187
   hydro     2     p      9.70834459
  # polarization set
   hydro     3     d      7.12202873
   hydro     3     d      9.46691758
   hydro     3     d     12.58384822
   hydro     3     d     16.72701115
   hydro     4     f     12.99915545
   hydro     4     f     15.67359110
   hydro     4     f     18.89826297
   hydro     5     g     21.03738814
   hydro     5     g     24.09299915
   hydro     6     h     30.60977870
  # (sp) enhanced minimal basis
   hydro     1     s     16.83050443
   hydro     1     s     24.69876230
   hydro     2     p     12.01245604
  ################################################################################
  #
  #  FHI-aims code project
  # Igor Ying Zhang and Xinguo Ren, Fritz Haber Institute Berlin, 2012
  #
  #  Suggested "NAO-VCC-5Z" defaults for H atom (to be pasted into control.in file)
  #
  #  Please cite:
  #
  #  Igor Ying Zhang, Xinguo Ren, Patrick Rinke, Volker Blum, and Matthias Scheffler,
  #  "Numeric atom-centered-orbital basis sets with valence-correlation consistency from H to Ar"
  #  New Journal of Physics 15, 123033 (2013).
  #  http://dx.doi.org/10.1088/1367-2630/15/12/123033
  #
  ################################################################################
    species        H
  #     set basis set reference for FHI-aims output
      cite_reference NAO-VCC-2013
  #     global species definitions
      nucleus             1
      mass                1.00794
  #
      l_hartree           6
  #
      cut_pot             4.0  2.0  1.0
      basis_dep_cutoff    0e-4
  #
      radial_base         24 7.0
      radial_multiplier   2
      angular_grids       specified
        division   0.1930   50
        division   0.3175  110
        division   0.4293  194
        division   0.5066  302
        division   0.5626  434
        division   0.5922  590
  #      division   0.6227  974
  #      division   0.6868 1202
        outer_grid  770
  #      outer_grid  434
  ################################################################################
  #
  #  Definition of "minimal" basis
  #
  ################################################################################
  #     valence basis states
      valence      1  s   1.
  #     ion occupancy
      ion_occ      1  s   0.5
  ################################################################################
  
  
   basis_acc              1e-04
  #============================================
  # Optimization in      H for       NAO-VCC-5Z
  #============================================
  # (sp) correlation set
   hydro     1     s      1.11779553
   hydro     1     s      1.56046949
   hydro     1     s      2.17845300
   hydro     1     s      3.04117285
   hydro     2     p      2.80545446
   hydro     2     p      3.98653311
   hydro     2     p      5.66483842
   hydro     2     p      8.04969969
  # polarization set
   hydro     3     d      5.99962077
   hydro     3     d      7.92382663
   hydro     3     d     10.46516619
   hydro     4     f     10.68384218
   hydro     4     f     13.30715397
   hydro     5     g     16.73481614
  # (sp) enhanced minimal set
   hydro     1     s      4.24555056
  ################################################################################
  #
  #  FHI-aims code project
  # Igor Ying Zhang and Xinguo Ren, Fritz Haber Institute Berlin, 2012
  #
  #  Suggested "NAO-VCC-5Z" defaults for C atom (to be pasted into control.in file)
  #
  #  Please cite:
  #
  #  Igor Ying Zhang, Xinguo Ren, Patrick Rinke, Volker Blum, and Matthias Scheffler,
  #  "Numeric atom-centered-orbital basis sets with valence-correlation consistency from H to Ar"
  #  New Journal of Physics 15, 123033 (2013).
  #  http://dx.doi.org/10.1088/1367-2630/15/12/123033
  #
  ################################################################################
    species        C
  #     set basis set reference for FHI-aims output
      cite_reference NAO-VCC-2013
  #     global species definitions
      nucleus             6
      mass                12.0107
  #
      l_hartree           6
  #
      cut_pot             4.0  2.0  1.0
      basis_dep_cutoff    0e-4
  #
      radial_base         34 7.0
      radial_multiplier   2
      angular_grids       specified
        division   0.2187   50
        division   0.4416  110
        division   0.6335  194
        division   0.7727  302
        division   0.8772  434
        division   0.9334  590
  #      division   0.9924  770
  #      division   1.0230  974
  #      division   1.5020 1202
  #      outer_grid  974
        outer_grid  770
  #      outer_grid  434
  ################################################################################
  #
  #  Definition of "minimal" basis
  #
  ################################################################################
  #     valence basis states
      valence      2  s   2.
      valence      2  p   2.
  #     ion occupancy
      ion_occ      2  s   1.
      ion_occ      2  p   1.
  ################################################################################
  
   basis_acc              1e-04
  #============================================
  # Optimization in      C for       NAO-VCC-5Z
  #============================================
  # (sp) correlation set
   hydro     1     s      1.62265497
   hydro     1     s      3.22740086
   hydro     1     s      6.41918123
   hydro     1     s     12.76751462
   hydro     2     p      2.41714682
   hydro     2     p      4.10436269
   hydro     2     p      6.96928833
   hydro     2     p     11.83398824
  # polarization set
   hydro     3     d      5.11061165
   hydro     3     d      6.86104896
   hydro     3     d      9.21102914
   hydro     3     d     12.36590183
   hydro     4     f     10.51851587
   hydro     4     f     11.50444114
   hydro     4     f     12.58277951
   hydro     5     g     16.24617922
   hydro     5     g     16.79172767
   hydro     6     h     22.55440019
  # (sp) enhanced minimal set
   hydro     1     s     15.61141940
   hydro     1     s     29.66159935
   hydro     2     p     10.71433476
  
  -----------------------------------------------------------------------
  Completed first pass over input file control.in .
  -----------------------------------------------------------------------
  
  
  -----------------------------------------------------------------------
  Parsing geometry.in (first pass over file, find array dimensions only).
  The contents of geometry.in will be repeated verbatim below
  unless switched off by setting 'verbatim_writeout .false.' .
  in the first line of geometry.in .
  -----------------------------------------------------------------------
  
  #===============================================================================
  # Created using the Atomic Simulation Environment (ASE)
  
  # Sat Jun 28 16:48:29 2025
  
  #=======================================================
  atom -2.9995774599999998 0.7034353600000000 -0.7644749300000000 O
  qm_embedding_region 1
  atom -3.7246112199999999 1.3188491700000000 -0.5773000700000001 H
  qm_embedding_region 1
  atom -4.3595134599999996 -1.7049052300000000 1.4432162799999999 O
  qm_embedding_region 1
  atom -3.9924159399999999 -1.1090525200000001 0.7498436300000000 H
  qm_embedding_region 1
  atom -0.6190745100000000 0.4552099100000000 -0.8523347200000000 C
  qm_embedding_region 2
  atom -1.7769654800000001 1.3005001100000000 -0.3352822400000000 C
  qm_embedding_region 2
  atom 0.7374467900000000 0.9512666000000000 -0.3711381600000000 C
  qm_embedding_region 2
  atom 3.2524608300000000 0.5801576400000000 -0.4031053700000000 C
  qm_embedding_region 2
  atom 3.4052494300000000 1.6488473600000000 -0.5835309100000000 H
  qm_embedding_region 2
  atom 1.8706259999999999 0.1631864600000000 -2.0115617399999999 H
  qm_embedding_region 2
  atom 1.7308959799999999 -0.9329121800000000 -0.6387313100000001 H
  qm_embedding_region 2
  atom 0.8654059900000000 2.0001578499999999 -0.6747522200000000 H
  qm_embedding_region 2
  atom 0.7476257100000000 0.9328236200000000 0.7280123300000000 H
  qm_embedding_region 2
  atom -0.6313945100000000 0.4507796900000000 -1.9528104600000000 H
  qm_embedding_region 2
  atom 4.0511016099999999 0.0349878100000000 -0.9112990900000000 H
  qm_embedding_region 2
  atom 1.8952555799999999 0.1154535000000000 -0.9158763000000000 C
  qm_embedding_region 2
  atom -1.6970052700000000 2.3216710800000002 -0.7370875700000000 H
  qm_embedding_region 2
  atom -0.7461241100000000 -0.5884582500000000 -0.5267699200000000 H
  qm_embedding_region 2
  atom -4.6845105499999997 -7.8507389900000000 2.5391040399999998 C
  qm_embedding_region 2
  atom -1.7432452599999999 1.3392487500000001 0.7646953600000000 H
  qm_embedding_region 2
  atom -4.9447976200000001 -6.3895239899999998 2.8815860899999999 C
  qm_embedding_region 2
  atom -4.5689247899999996 -5.4397207300000003 1.7433153400000001 C
  qm_embedding_region 2
  atom -4.7738726199999997 -3.9732622100000001 2.0937187399999999 C
  qm_embedding_region 2
  atom -4.2734860000000001 -3.0275456400000000 0.9967403700000000 C
  qm_embedding_region 2
  atom -4.9300196999999999 -8.4848734300000004 3.3940723899999998 H
  qm_embedding_region 2
  atom -5.2952672999999999 -8.1754948600000006 1.6906695100000000 H
  qm_embedding_region 2
  atom -3.6319166200000002 -8.0147405999999997 2.2870404899999999 H
  qm_embedding_region 2
  atom -4.3709652500000002 -6.1047659400000001 3.7718493500000001 H
  qm_embedding_region 2
  atom -6.0040426199999999 -6.2421081999999997 3.1224893699999998 H
  qm_embedding_region 2
  atom -3.5150274399999999 -5.5961320199999998 1.4721294500000000 H
  qm_embedding_region 2
  atom -5.1672109199999996 -5.6798084500000003 0.8526411400000000 H
  qm_embedding_region 2
  atom 3.3524010199999998 0.3969157200000000 0.6716839800000000 H
  qm_embedding_region 2
  atom -4.2535942499999999 -3.7521138500000002 3.0373312900000000 H
  qm_embedding_region 2
  atom -5.8461641899999996 -3.7893040700000000 2.2593167599999999 H
  qm_embedding_region 2
  atom -3.2297188399999999 -3.2888903300000001 0.7496481500000000 H
  qm_embedding_region 2
  atom -4.8928751699999999 -3.1732709600000000 0.0951177300000000 H
  qm_embedding_region 2
  
  -----------------------------------------------------------------------
  Completed first pass over input file geometry.in .
  -----------------------------------------------------------------------
  

  Basic array size parameters:
  | Number of species                 :        3
  | Number of atoms                   :       36
  | Max. basis fn. angular momentum   :        5
  | Max. atomic/ionic basis occupied n:        2
  | Max. number of basis fn. types    :        2
  | Max. radial fns per species/type  :       21
  | Max. logarithmic grid size        :     1301
  | Max. radial integration grid size :       73
  | Max. angular integration grid size:      770
  | Max. angular grid division number :        8
  | Radial grid for Hartree potential :     1301
  | Number of spin channels           :        1

  Definition of standardized fundamental physical constants in this FHI-aims run:
  | Using the set of values used in FHI-aims up to 2024, which combines values from
  | different CODATA sets - see constants.f90.
  | Use the 'codata' keyword in control.in to change this selection.

  Memory overcommitment is allowed on your operating system.

------------------------------------------------------------
          Reading file control.in.
------------------------------------------------------------
  XC: Using PBE gradient-corrected functionals.
  Requested output level: full
  Scalar relativistic treatment of kinetic energy: on-site free-atom approximation to ZORA.
  Occupation type: Gaussian broadening, width =   0.100000E-01 eV.
  Using pulay charge density mixing.
  Pulay mixing - number of memorized iterations:   10
  Kohn-Sham electronic structure solved by the ELSI library.
  The 'LVL' version of RI (resolution of identity) technique is used.
  ** This is a localized expansion of all basis function products.
     Its intended use are Hartree-Fock and hybrid functionals.
     For RPA, MP2, GW, etc., LVL is not yet as accurate. In those cases, check carefully.
  Atomic Solver XC: Using user-defined functional for generating the minimal NAO basis functions.
  Note that only the following functionals are available: kli, pz-lda, pw-lda, vwn, vwn-gauss, pw91_gga, pbe, rpbe, revpbe, pbeint, blyp.
  Threshold for basis singularities:  0.1000E-04
  override_illconditioning: Explicitly overriding any built-in checks for an ill-conditioned overlap matrix.
** WARNING:
  ***  If you use this flag, you should really know what you are doing.
** END OF WARNING
** WARNING:
  *** DO NOT keep this flag set by default in all your control.in files.
** END OF WARNING
  Old 1D distribution for correlation code.
  Charge =  -0.000000E+00: Neutral system requested explicitly.

  Reading configuration options for species O                   .
  | Found nuclear charge :   8.0000
  | Found atomic mass :    15.999400000000000      amu
  | Found l_max for Hartree potential  :   6
  | Found cutoff potl. onset [A], width [A], scale factor :    4.00000    2.00000    1.00000
  | Threshold for basis-dependent cutoff potential is   0.000000E+00
  | Found data for basic radial integration grid :    36 points, outermost radius =    7.000 A
  | Found multiplier for basic radial grid :   2
  | Found angular grid specification: user-specified.
  | Specified grid contains     7 separate shells.
  | Check grid settings after all constraints further below.
  | Found free-atom valence shell :  2 s   2.000
  | Found free-atom valence shell :  2 p   4.000
  | No ionic wave fns used. Skipping ion_occ.
  | No ionic wave fns used. Skipping ion_occ.
  | Found basis singularity cutoff : 0.1000E-03
  | Found hydrogenic basis function :  1 s   2.095
  | Found hydrogenic basis function :  1 s   3.536
  | Found hydrogenic basis function :  1 s   5.970
  | Found hydrogenic basis function :  1 s  10.078
  | Found hydrogenic basis function :  2 p   2.208
  | Found hydrogenic basis function :  2 p   3.618
  | Found hydrogenic basis function :  2 p   5.926
  | Found hydrogenic basis function :  2 p   9.708
  | Found hydrogenic basis function :  3 d   7.122
  | Found hydrogenic basis function :  3 d   9.467
  | Found hydrogenic basis function :  3 d  12.584
  | Found hydrogenic basis function :  3 d  16.727
  | Found hydrogenic basis function :  4 f  12.999
  | Found hydrogenic basis function :  4 f  15.674
  | Found hydrogenic basis function :  4 f  18.898
  | Found hydrogenic basis function :  5 g  21.037
  | Found hydrogenic basis function :  5 g  24.093
  | Found hydrogenic basis function :  6 h  30.610
  | Found hydrogenic basis function :  1 s  16.831
  | Found hydrogenic basis function :  1 s  24.699
  | Found hydrogenic basis function :  2 p  12.012
 | Encountered keyword species, ending the description of species O                   .
  Species O                   : Missing cutoff potential type.
  Defaulting to exp(1/x)/(1-x)^2 type cutoff potential.
  Species O : No 'logarithmic' tag. Using default grid for free atom:
  | Default logarithmic grid data [bohr] : 0.1000E-03 0.1000E+03 0.1012E+01
  Species O                   : Using default innermost maximum threshold i_radial=  2 for radial functions.
  Species O                   : Default cutoff onset for free atom density etc. : 0.40000000E+01 AA.
  Species O                   : Basic radial grid will be enhanced according to radial_multiplier =   2, to contain    73 grid points.

  Reading configuration options for species H                   .
  | Found nuclear charge :   1.0000
  | Found atomic mass :    1.0079400000000001      amu
  | Found l_max for Hartree potential  :   6
  | Found cutoff potl. onset [A], width [A], scale factor :    4.00000    2.00000    1.00000
  | Threshold for basis-dependent cutoff potential is   0.000000E+00
  | Found data for basic radial integration grid :    24 points, outermost radius =    7.000 A
  | Found multiplier for basic radial grid :   2
  | Found angular grid specification: user-specified.
  | Specified grid contains     7 separate shells.
  | Check grid settings after all constraints further below.
  | Found free-atom valence shell :  1 s   1.000
  | No ionic wave fns used. Skipping ion_occ.
  | Found basis singularity cutoff : 0.1000E-03
  | Found hydrogenic basis function :  1 s   1.118
  | Found hydrogenic basis function :  1 s   1.560
  | Found hydrogenic basis function :  1 s   2.178
  | Found hydrogenic basis function :  1 s   3.041
  | Found hydrogenic basis function :  2 p   2.805
  | Found hydrogenic basis function :  2 p   3.987
  | Found hydrogenic basis function :  2 p   5.665
  | Found hydrogenic basis function :  2 p   8.050
  | Found hydrogenic basis function :  3 d   6.000
  | Found hydrogenic basis function :  3 d   7.924
  | Found hydrogenic basis function :  3 d  10.465
  | Found hydrogenic basis function :  4 f  10.684
  | Found hydrogenic basis function :  4 f  13.307
  | Found hydrogenic basis function :  5 g  16.735
  | Found hydrogenic basis function :  1 s   4.246
 | Encountered keyword species, ending the description of species H                   .
  Species H                   : Missing cutoff potential type.
  Defaulting to exp(1/x)/(1-x)^2 type cutoff potential.
  Species H : No 'logarithmic' tag. Using default grid for free atom:
  | Default logarithmic grid data [bohr] : 0.1000E-03 0.1000E+03 0.1012E+01
  Species H                   : Using default innermost maximum threshold i_radial=  2 for radial functions.
  Species H                   : Default cutoff onset for free atom density etc. : 0.40000000E+01 AA.
  Species H                   : Basic radial grid will be enhanced according to radial_multiplier =   2, to contain    49 grid points.

  Reading configuration options for species C                   .
  | Found nuclear charge :   6.0000
  | Found atomic mass :    12.010700000000000      amu
  | Found l_max for Hartree potential  :   6
  | Found cutoff potl. onset [A], width [A], scale factor :    4.00000    2.00000    1.00000
  | Threshold for basis-dependent cutoff potential is   0.000000E+00
  | Found data for basic radial integration grid :    34 points, outermost radius =    7.000 A
  | Found multiplier for basic radial grid :   2
  | Found angular grid specification: user-specified.
  | Specified grid contains     7 separate shells.
  | Check grid settings after all constraints further below.
  | Found free-atom valence shell :  2 s   2.000
  | Found free-atom valence shell :  2 p   2.000
  | No ionic wave fns used. Skipping ion_occ.
  | No ionic wave fns used. Skipping ion_occ.
  | Found basis singularity cutoff : 0.1000E-03
  | Found hydrogenic basis function :  1 s   1.623
  | Found hydrogenic basis function :  1 s   3.227
  | Found hydrogenic basis function :  1 s   6.419
  | Found hydrogenic basis function :  1 s  12.768
  | Found hydrogenic basis function :  2 p   2.417
  | Found hydrogenic basis function :  2 p   4.104
  | Found hydrogenic basis function :  2 p   6.969
  | Found hydrogenic basis function :  2 p  11.834
  | Found hydrogenic basis function :  3 d   5.111
  | Found hydrogenic basis function :  3 d   6.861
  | Found hydrogenic basis function :  3 d   9.211
  | Found hydrogenic basis function :  3 d  12.366
  | Found hydrogenic basis function :  4 f  10.519
  | Found hydrogenic basis function :  4 f  11.504
  | Found hydrogenic basis function :  4 f  12.583
  | Found hydrogenic basis function :  5 g  16.246
  | Found hydrogenic basis function :  5 g  16.792
  | Found hydrogenic basis function :  6 h  22.554
  | Found hydrogenic basis function :  1 s  15.611
  | Found hydrogenic basis function :  1 s  29.662
  | Found hydrogenic basis function :  2 p  10.714
  Species C                   : Missing cutoff potential type.
  Defaulting to exp(1/x)/(1-x)^2 type cutoff potential.
  Species C : No 'logarithmic' tag. Using default grid for free atom:
  | Default logarithmic grid data [bohr] : 0.1000E-03 0.1000E+03 0.1012E+01
  Species C                   : Using default innermost maximum threshold i_radial=  2 for radial functions.
  Species C                   : Default cutoff onset for free atom density etc. : 0.40000000E+01 AA.
  Species C                   : Basic radial grid will be enhanced according to radial_multiplier =   2, to contain    69 grid points.

  Finished reading input file 'control.in'.

------------------------------------------------------------


------------------------------------------------------------
          Reading geometry description geometry.in.
------------------------------------------------------------
  | The smallest distance between any two atoms is         0.96924844 AA.
  | The first atom of this pair is atom number                      1 .
  | The second atom of this pair is atom number                     2 .
  Input structure read successfully.
  The structure contains       36 atoms,  and a total of        100.000 electrons.

  Input geometry:
  | No unit cell requested.
  | Atomic structure:
  |       Atom                x [A]            y [A]            z [A]
  |    1: Species O            -2.99957746        0.70343536       -0.76447493
  |    2: Species H            -3.72461122        1.31884917       -0.57730007
  |    3: Species O            -4.35951346       -1.70490523        1.44321628
  |    4: Species H            -3.99241594       -1.10905252        0.74984363
  |    5: Species C            -0.61907451        0.45520991       -0.85233472
  |    6: Species C            -1.77696548        1.30050011       -0.33528224
  |    7: Species C             0.73744679        0.95126660       -0.37113816
  |    8: Species C             3.25246083        0.58015764       -0.40310537
  |    9: Species H             3.40524943        1.64884736       -0.58353091
  |   10: Species H             1.87062600        0.16318646       -2.01156174
  |   11: Species H             1.73089598       -0.93291218       -0.63873131
  |   12: Species H             0.86540599        2.00015785       -0.67475222
  |   13: Species H             0.74762571        0.93282362        0.72801233
  |   14: Species H            -0.63139451        0.45077969       -1.95281046
  |   15: Species H             4.05110161        0.03498781       -0.91129909
  |   16: Species C             1.89525558        0.11545350       -0.91587630
  |   17: Species H            -1.69700527        2.32167108       -0.73708757
  |   18: Species H            -0.74612411       -0.58845825       -0.52676992
  |   19: Species C            -4.68451055       -7.85073899        2.53910404
  |   20: Species H            -1.74324526        1.33924875        0.76469536
  |   21: Species C            -4.94479762       -6.38952399        2.88158609
  |   22: Species C            -4.56892479       -5.43972073        1.74331534
  |   23: Species C            -4.77387262       -3.97326221        2.09371874
  |   24: Species C            -4.27348600       -3.02754564        0.99674037
  |   25: Species H            -4.93001970       -8.48487343        3.39407239
  |   26: Species H            -5.29526730       -8.17549486        1.69066951
  |   27: Species H            -3.63191662       -8.01474060        2.28704049
  |   28: Species H            -4.37096525       -6.10476594        3.77184935
  |   29: Species H            -6.00404262       -6.24210820        3.12248937
  |   30: Species H            -3.51502744       -5.59613202        1.47212945
  |   31: Species H            -5.16721092       -5.67980845        0.85264114
  |   32: Species H             3.35240102        0.39691572        0.67168398
  |   33: Species H            -4.25359425       -3.75211385        3.03733129
  |   34: Species H            -5.84616419       -3.78930407        2.25931676
  |   35: Species H            -3.22971884       -3.28889033        0.74964815
  |   36: Species H            -4.89287517       -3.17327096        0.09511773

  Slab Identifier: This is not a periodic structure.

  Finished reading input file 'geometry.in'.



  Consistency checks for stacksize environment parameter are next.

  | Maximum stacksize for task 0: unlimited
  | Maximum stacksize for task 1: unlimited
  | Maximum stacksize for task 2: unlimited
  | Maximum stacksize for task 3: unlimited
  | Maximum stacksize for task 4: unlimited
  | Maximum stacksize for task 5: unlimited
  | Maximum stacksize for task 6: unlimited
  | Maximum stacksize for task 7: unlimited
  | Maximum stacksize for task 8: unlimited
  | Maximum stacksize for task 9: unlimited
  | Maximum stacksize for task 10: unlimited
  | Maximum stacksize for task 11: unlimited
  | Maximum stacksize for task 12: unlimited
  | Maximum stacksize for task 13: unlimited
  | Maximum stacksize for task 14: unlimited
  | Maximum stacksize for task 15: unlimited
  | Maximum stacksize for task 16: unlimited
  | Maximum stacksize for task 17: unlimited
  | Maximum stacksize for task 18: unlimited
  | Maximum stacksize for task 19: unlimited
  | Maximum stacksize for task 20: unlimited
  | Maximum stacksize for task 21: unlimited
  | Maximum stacksize for task 22: unlimited
  | Maximum stacksize for task 23: unlimited
  | Maximum stacksize for task 24: unlimited
  | Maximum stacksize for task 25: unlimited
  | Maximum stacksize for task 26: unlimited
  | Maximum stacksize for task 27: unlimited
  | Maximum stacksize for task 28: unlimited
  | Maximum stacksize for task 29: unlimited
  | Maximum stacksize for task 30: unlimited
  | Maximum stacksize for task 31: unlimited
  | Maximum stacksize for task 32: unlimited
  | Maximum stacksize for task 33: unlimited
  | Maximum stacksize for task 34: unlimited
  | Maximum stacksize for task 35: unlimited
  | Maximum stacksize for task 36: unlimited
  | Maximum stacksize for task 37: unlimited
  | Maximum stacksize for task 38: unlimited
  | Maximum stacksize for task 39: unlimited
  | Maximum stacksize for task 40: unlimited
  | Maximum stacksize for task 41: unlimited
  | Maximum stacksize for task 42: unlimited
  | Maximum stacksize for task 43: unlimited
  | Maximum stacksize for task 44: unlimited
  | Maximum stacksize for task 45: unlimited
  | Maximum stacksize for task 46: unlimited
  | Maximum stacksize for task 47: unlimited
  | Maximum stacksize for task 48: unlimited
  | Maximum stacksize for task 49: unlimited
  | Maximum stacksize for task 50: unlimited
  | Maximum stacksize for task 51: unlimited
  | Maximum stacksize for task 52: unlimited
  | Maximum stacksize for task 53: unlimited
  | Maximum stacksize for task 54: unlimited
  | Maximum stacksize for task 55: unlimited
  | Maximum stacksize for task 56: unlimited
  | Maximum stacksize for task 57: unlimited
  | Maximum stacksize for task 58: unlimited
  | Maximum stacksize for task 59: unlimited
  | Maximum stacksize for task 60: unlimited
  | Maximum stacksize for task 61: unlimited
  | Maximum stacksize for task 62: unlimited
  | Maximum stacksize for task 63: unlimited
  | Maximum stacksize for task 64: unlimited
  | Maximum stacksize for task 65: unlimited
  | Maximum stacksize for task 66: unlimited
  | Maximum stacksize for task 67: unlimited
  | Maximum stacksize for task 68: unlimited
  | Maximum stacksize for task 69: unlimited
  | Maximum stacksize for task 70: unlimited
  | Maximum stacksize for task 71: unlimited
  | Maximum stacksize for task 72: unlimited
  | Maximum stacksize for task 73: unlimited
  | Maximum stacksize for task 74: unlimited
  | Maximum stacksize for task 75: unlimited
  | Maximum stacksize for task 76: unlimited
  | Maximum stacksize for task 77: unlimited
  | Maximum stacksize for task 78: unlimited
  | Maximum stacksize for task 79: unlimited
  | Maximum stacksize for task 80: unlimited
  | Maximum stacksize for task 81: unlimited
  | Maximum stacksize for task 82: unlimited
  | Maximum stacksize for task 83: unlimited
  | Maximum stacksize for task 84: unlimited
  | Maximum stacksize for task 85: unlimited
  | Maximum stacksize for task 86: unlimited
  | Maximum stacksize for task 87: unlimited
  | Maximum stacksize for task 88: unlimited
  | Maximum stacksize for task 89: unlimited
  | Maximum stacksize for task 90: unlimited
  | Maximum stacksize for task 91: unlimited
  | Maximum stacksize for task 92: unlimited
  | Maximum stacksize for task 93: unlimited
  | Maximum stacksize for task 94: unlimited
  | Maximum stacksize for task 95: unlimited
  | Maximum stacksize for task 96: unlimited
  | Maximum stacksize for task 97: unlimited
  | Maximum stacksize for task 98: unlimited
  | Maximum stacksize for task 99: unlimited
  | Maximum stacksize for task 100: unlimited
  | Maximum stacksize for task 101: unlimited
  | Maximum stacksize for task 102: unlimited
  | Maximum stacksize for task 103: unlimited
  | Maximum stacksize for task 104: unlimited
  | Maximum stacksize for task 105: unlimited
  | Maximum stacksize for task 106: unlimited
  | Maximum stacksize for task 107: unlimited
  | Maximum stacksize for task 108: unlimited
  | Maximum stacksize for task 109: unlimited
  | Maximum stacksize for task 110: unlimited
  | Maximum stacksize for task 111: unlimited
  | Maximum stacksize for task 112: unlimited
  | Maximum stacksize for task 113: unlimited
  | Maximum stacksize for task 114: unlimited
  | Maximum stacksize for task 115: unlimited
  | Maximum stacksize for task 116: unlimited
  | Maximum stacksize for task 117: unlimited
  | Maximum stacksize for task 118: unlimited
  | Maximum stacksize for task 119: unlimited
  | Maximum stacksize for task 120: unlimited
  | Maximum stacksize for task 121: unlimited
  | Maximum stacksize for task 122: unlimited
  | Maximum stacksize for task 123: unlimited
  | Maximum stacksize for task 124: unlimited
  | Maximum stacksize for task 125: unlimited
  | Maximum stacksize for task 126: unlimited
  | Maximum stacksize for task 127: unlimited
  | Maximum stacksize for task 128: unlimited
  | Maximum stacksize for task 129: unlimited
  | Maximum stacksize for task 130: unlimited
  | Maximum stacksize for task 131: unlimited
  | Maximum stacksize for task 132: unlimited
  | Maximum stacksize for task 133: unlimited
  | Maximum stacksize for task 134: unlimited
  | Maximum stacksize for task 135: unlimited
  | Maximum stacksize for task 136: unlimited
  | Maximum stacksize for task 137: unlimited
  | Maximum stacksize for task 138: unlimited
  | Maximum stacksize for task 139: unlimited
  | Maximum stacksize for task 140: unlimited
  | Maximum stacksize for task 141: unlimited
  | Maximum stacksize for task 142: unlimited
  | Maximum stacksize for task 143: unlimited
  | Maximum stacksize for task 144: unlimited
  | Maximum stacksize for task 145: unlimited
  | Maximum stacksize for task 146: unlimited
  | Maximum stacksize for task 147: unlimited
  | Maximum stacksize for task 148: unlimited
  | Maximum stacksize for task 149: unlimited
  | Maximum stacksize for task 150: unlimited
  | Maximum stacksize for task 151: unlimited
  | Maximum stacksize for task 152: unlimited
  | Maximum stacksize for task 153: unlimited
  | Maximum stacksize for task 154: unlimited
  | Maximum stacksize for task 155: unlimited
  | Maximum stacksize for task 156: unlimited
  | Maximum stacksize for task 157: unlimited
  | Maximum stacksize for task 158: unlimited
  | Maximum stacksize for task 159: unlimited
  | Maximum stacksize for task 160: unlimited
  | Maximum stacksize for task 161: unlimited
  | Maximum stacksize for task 162: unlimited
  | Maximum stacksize for task 163: unlimited
  | Maximum stacksize for task 164: unlimited
  | Maximum stacksize for task 165: unlimited
  | Maximum stacksize for task 166: unlimited
  | Maximum stacksize for task 167: unlimited
  | Maximum stacksize for task 168: unlimited
  | Maximum stacksize for task 169: unlimited
  | Maximum stacksize for task 170: unlimited
  | Maximum stacksize for task 171: unlimited
  | Maximum stacksize for task 172: unlimited
  | Maximum stacksize for task 173: unlimited
  | Maximum stacksize for task 174: unlimited
  | Maximum stacksize for task 175: unlimited
  | Maximum stacksize for task 176: unlimited
  | Maximum stacksize for task 177: unlimited
  | Maximum stacksize for task 178: unlimited
  | Maximum stacksize for task 179: unlimited
  | Maximum stacksize for task 180: unlimited
  | Maximum stacksize for task 181: unlimited
  | Maximum stacksize for task 182: unlimited
  | Maximum stacksize for task 183: unlimited
  | Maximum stacksize for task 184: unlimited
  | Maximum stacksize for task 185: unlimited
  | Maximum stacksize for task 186: unlimited
  | Maximum stacksize for task 187: unlimited
  | Maximum stacksize for task 188: unlimited
  | Maximum stacksize for task 189: unlimited
  | Maximum stacksize for task 190: unlimited
  | Maximum stacksize for task 191: unlimited
  | Maximum stacksize for task 192: unlimited
  | Maximum stacksize for task 193: unlimited
  | Maximum stacksize for task 194: unlimited
  | Maximum stacksize for task 195: unlimited
  | Maximum stacksize for task 196: unlimited
  | Maximum stacksize for task 197: unlimited
  | Maximum stacksize for task 198: unlimited
  | Maximum stacksize for task 199: unlimited
  | Maximum stacksize for task 200: unlimited
  | Maximum stacksize for task 201: unlimited
  | Maximum stacksize for task 202: unlimited
  | Maximum stacksize for task 203: unlimited
  | Maximum stacksize for task 204: unlimited
  | Maximum stacksize for task 205: unlimited
  | Maximum stacksize for task 206: unlimited
  | Maximum stacksize for task 207: unlimited
  | Maximum stacksize for task 208: unlimited
  | Maximum stacksize for task 209: unlimited
  | Maximum stacksize for task 210: unlimited
  | Maximum stacksize for task 211: unlimited
  | Maximum stacksize for task 212: unlimited
  | Maximum stacksize for task 213: unlimited
  | Maximum stacksize for task 214: unlimited
  | Maximum stacksize for task 215: unlimited
  | Maximum stacksize for task 216: unlimited
  | Maximum stacksize for task 217: unlimited
  | Maximum stacksize for task 218: unlimited
  | Maximum stacksize for task 219: unlimited
  | Maximum stacksize for task 220: unlimited
  | Maximum stacksize for task 221: unlimited
  | Maximum stacksize for task 222: unlimited
  | Maximum stacksize for task 223: unlimited
  | Maximum stacksize for task 224: unlimited
  | Maximum stacksize for task 225: unlimited
  | Maximum stacksize for task 226: unlimited
  | Maximum stacksize for task 227: unlimited
  | Maximum stacksize for task 228: unlimited
  | Maximum stacksize for task 229: unlimited
  | Maximum stacksize for task 230: unlimited
  | Maximum stacksize for task 231: unlimited
  | Maximum stacksize for task 232: unlimited
  | Maximum stacksize for task 233: unlimited
  | Maximum stacksize for task 234: unlimited
  | Maximum stacksize for task 235: unlimited
  | Maximum stacksize for task 236: unlimited
  | Maximum stacksize for task 237: unlimited
  | Maximum stacksize for task 238: unlimited
  | Maximum stacksize for task 239: unlimited
  | Maximum stacksize for task 240: unlimited
  | Maximum stacksize for task 241: unlimited
  | Maximum stacksize for task 242: unlimited
  | Maximum stacksize for task 243: unlimited
  | Maximum stacksize for task 244: unlimited
  | Maximum stacksize for task 245: unlimited
  | Maximum stacksize for task 246: unlimited
  | Maximum stacksize for task 247: unlimited
  | Maximum stacksize for task 248: unlimited
  | Maximum stacksize for task 249: unlimited
  | Maximum stacksize for task 250: unlimited
  | Maximum stacksize for task 251: unlimited
  | Maximum stacksize for task 252: unlimited
  | Maximum stacksize for task 253: unlimited
  | Maximum stacksize for task 254: unlimited
  | Maximum stacksize for task 255: unlimited
  | Current stacksize for task 0: unlimited
  | Current stacksize for task 1: unlimited
  | Current stacksize for task 2: unlimited
  | Current stacksize for task 3: unlimited
  | Current stacksize for task 4: unlimited
  | Current stacksize for task 5: unlimited
  | Current stacksize for task 6: unlimited
  | Current stacksize for task 7: unlimited
  | Current stacksize for task 8: unlimited
  | Current stacksize for task 9: unlimited
  | Current stacksize for task 10: unlimited
  | Current stacksize for task 11: unlimited
  | Current stacksize for task 12: unlimited
  | Current stacksize for task 13: unlimited
  | Current stacksize for task 14: unlimited
  | Current stacksize for task 15: unlimited
  | Current stacksize for task 16: unlimited
  | Current stacksize for task 17: unlimited
  | Current stacksize for task 18: unlimited
  | Current stacksize for task 19: unlimited
  | Current stacksize for task 20: unlimited
  | Current stacksize for task 21: unlimited
  | Current stacksize for task 22: unlimited
  | Current stacksize for task 23: unlimited
  | Current stacksize for task 24: unlimited
  | Current stacksize for task 25: unlimited
  | Current stacksize for task 26: unlimited
  | Current stacksize for task 27: unlimited
  | Current stacksize for task 28: unlimited
  | Current stacksize for task 29: unlimited
  | Current stacksize for task 30: unlimited
  | Current stacksize for task 31: unlimited
  | Current stacksize for task 32: unlimited
  | Current stacksize for task 33: unlimited
  | Current stacksize for task 34: unlimited
  | Current stacksize for task 35: unlimited
  | Current stacksize for task 36: unlimited
  | Current stacksize for task 37: unlimited
  | Current stacksize for task 38: unlimited
  | Current stacksize for task 39: unlimited
  | Current stacksize for task 40: unlimited
  | Current stacksize for task 41: unlimited
  | Current stacksize for task 42: unlimited
  | Current stacksize for task 43: unlimited
  | Current stacksize for task 44: unlimited
  | Current stacksize for task 45: unlimited
  | Current stacksize for task 46: unlimited
  | Current stacksize for task 47: unlimited
  | Current stacksize for task 48: unlimited
  | Current stacksize for task 49: unlimited
  | Current stacksize for task 50: unlimited
  | Current stacksize for task 51: unlimited
  | Current stacksize for task 52: unlimited
  | Current stacksize for task 53: unlimited
  | Current stacksize for task 54: unlimited
  | Current stacksize for task 55: unlimited
  | Current stacksize for task 56: unlimited
  | Current stacksize for task 57: unlimited
  | Current stacksize for task 58: unlimited
  | Current stacksize for task 59: unlimited
  | Current stacksize for task 60: unlimited
  | Current stacksize for task 61: unlimited
  | Current stacksize for task 62: unlimited
  | Current stacksize for task 63: unlimited
  | Current stacksize for task 64: unlimited
  | Current stacksize for task 65: unlimited
  | Current stacksize for task 66: unlimited
  | Current stacksize for task 67: unlimited
  | Current stacksize for task 68: unlimited
  | Current stacksize for task 69: unlimited
  | Current stacksize for task 70: unlimited
  | Current stacksize for task 71: unlimited
  | Current stacksize for task 72: unlimited
  | Current stacksize for task 73: unlimited
  | Current stacksize for task 74: unlimited
  | Current stacksize for task 75: unlimited
  | Current stacksize for task 76: unlimited
  | Current stacksize for task 77: unlimited
  | Current stacksize for task 78: unlimited
  | Current stacksize for task 79: unlimited
  | Current stacksize for task 80: unlimited
  | Current stacksize for task 81: unlimited
  | Current stacksize for task 82: unlimited
  | Current stacksize for task 83: unlimited
  | Current stacksize for task 84: unlimited
  | Current stacksize for task 85: unlimited
  | Current stacksize for task 86: unlimited
  | Current stacksize for task 87: unlimited
  | Current stacksize for task 88: unlimited
  | Current stacksize for task 89: unlimited
  | Current stacksize for task 90: unlimited
  | Current stacksize for task 91: unlimited
  | Current stacksize for task 92: unlimited
  | Current stacksize for task 93: unlimited
  | Current stacksize for task 94: unlimited
  | Current stacksize for task 95: unlimited
  | Current stacksize for task 96: unlimited
  | Current stacksize for task 97: unlimited
  | Current stacksize for task 98: unlimited
  | Current stacksize for task 99: unlimited
  | Current stacksize for task 100: unlimited
  | Current stacksize for task 101: unlimited
  | Current stacksize for task 102: unlimited
  | Current stacksize for task 103: unlimited
  | Current stacksize for task 104: unlimited
  | Current stacksize for task 105: unlimited
  | Current stacksize for task 106: unlimited
  | Current stacksize for task 107: unlimited
  | Current stacksize for task 108: unlimited
  | Current stacksize for task 109: unlimited
  | Current stacksize for task 110: unlimited
  | Current stacksize for task 111: unlimited
  | Current stacksize for task 112: unlimited
  | Current stacksize for task 113: unlimited
  | Current stacksize for task 114: unlimited
  | Current stacksize for task 115: unlimited
  | Current stacksize for task 116: unlimited
  | Current stacksize for task 117: unlimited
  | Current stacksize for task 118: unlimited
  | Current stacksize for task 119: unlimited
  | Current stacksize for task 120: unlimited
  | Current stacksize for task 121: unlimited
  | Current stacksize for task 122: unlimited
  | Current stacksize for task 123: unlimited
  | Current stacksize for task 124: unlimited
  | Current stacksize for task 125: unlimited
  | Current stacksize for task 126: unlimited
  | Current stacksize for task 127: unlimited
  | Current stacksize for task 128: unlimited
  | Current stacksize for task 129: unlimited
  | Current stacksize for task 130: unlimited
  | Current stacksize for task 131: unlimited
  | Current stacksize for task 132: unlimited
  | Current stacksize for task 133: unlimited
  | Current stacksize for task 134: unlimited
  | Current stacksize for task 135: unlimited
  | Current stacksize for task 136: unlimited
  | Current stacksize for task 137: unlimited
  | Current stacksize for task 138: unlimited
  | Current stacksize for task 139: unlimited
  | Current stacksize for task 140: unlimited
  | Current stacksize for task 141: unlimited
  | Current stacksize for task 142: unlimited
  | Current stacksize for task 143: unlimited
  | Current stacksize for task 144: unlimited
  | Current stacksize for task 145: unlimited
  | Current stacksize for task 146: unlimited
  | Current stacksize for task 147: unlimited
  | Current stacksize for task 148: unlimited
  | Current stacksize for task 149: unlimited
  | Current stacksize for task 150: unlimited
  | Current stacksize for task 151: unlimited
  | Current stacksize for task 152: unlimited
  | Current stacksize for task 153: unlimited
  | Current stacksize for task 154: unlimited
  | Current stacksize for task 155: unlimited
  | Current stacksize for task 156: unlimited
  | Current stacksize for task 157: unlimited
  | Current stacksize for task 158: unlimited
  | Current stacksize for task 159: unlimited
  | Current stacksize for task 160: unlimited
  | Current stacksize for task 161: unlimited
  | Current stacksize for task 162: unlimited
  | Current stacksize for task 163: unlimited
  | Current stacksize for task 164: unlimited
  | Current stacksize for task 165: unlimited
  | Current stacksize for task 166: unlimited
  | Current stacksize for task 167: unlimited
  | Current stacksize for task 168: unlimited
  | Current stacksize for task 169: unlimited
  | Current stacksize for task 170: unlimited
  | Current stacksize for task 171: unlimited
  | Current stacksize for task 172: unlimited
  | Current stacksize for task 173: unlimited
  | Current stacksize for task 174: unlimited
  | Current stacksize for task 175: unlimited
  | Current stacksize for task 176: unlimited
  | Current stacksize for task 177: unlimited
  | Current stacksize for task 178: unlimited
  | Current stacksize for task 179: unlimited
  | Current stacksize for task 180: unlimited
  | Current stacksize for task 181: unlimited
  | Current stacksize for task 182: unlimited
  | Current stacksize for task 183: unlimited
  | Current stacksize for task 184: unlimited
  | Current stacksize for task 185: unlimited
  | Current stacksize for task 186: unlimited
  | Current stacksize for task 187: unlimited
  | Current stacksize for task 188: unlimited
  | Current stacksize for task 189: unlimited
  | Current stacksize for task 190: unlimited
  | Current stacksize for task 191: unlimited
  | Current stacksize for task 192: unlimited
  | Current stacksize for task 193: unlimited
  | Current stacksize for task 194: unlimited
  | Current stacksize for task 195: unlimited
  | Current stacksize for task 196: unlimited
  | Current stacksize for task 197: unlimited
  | Current stacksize for task 198: unlimited
  | Current stacksize for task 199: unlimited
  | Current stacksize for task 200: unlimited
  | Current stacksize for task 201: unlimited
  | Current stacksize for task 202: unlimited
  | Current stacksize for task 203: unlimited
  | Current stacksize for task 204: unlimited
  | Current stacksize for task 205: unlimited
  | Current stacksize for task 206: unlimited
  | Current stacksize for task 207: unlimited
  | Current stacksize for task 208: unlimited
  | Current stacksize for task 209: unlimited
  | Current stacksize for task 210: unlimited
  | Current stacksize for task 211: unlimited
  | Current stacksize for task 212: unlimited
  | Current stacksize for task 213: unlimited
  | Current stacksize for task 214: unlimited
  | Current stacksize for task 215: unlimited
  | Current stacksize for task 216: unlimited
  | Current stacksize for task 217: unlimited
  | Current stacksize for task 218: unlimited
  | Current stacksize for task 219: unlimited
  | Current stacksize for task 220: unlimited
  | Current stacksize for task 221: unlimited
  | Current stacksize for task 222: unlimited
  | Current stacksize for task 223: unlimited
  | Current stacksize for task 224: unlimited
  | Current stacksize for task 225: unlimited
  | Current stacksize for task 226: unlimited
  | Current stacksize for task 227: unlimited
  | Current stacksize for task 228: unlimited
  | Current stacksize for task 229: unlimited
  | Current stacksize for task 230: unlimited
  | Current stacksize for task 231: unlimited
  | Current stacksize for task 232: unlimited
  | Current stacksize for task 233: unlimited
  | Current stacksize for task 234: unlimited
  | Current stacksize for task 235: unlimited
  | Current stacksize for task 236: unlimited
  | Current stacksize for task 237: unlimited
  | Current stacksize for task 238: unlimited
  | Current stacksize for task 239: unlimited
  | Current stacksize for task 240: unlimited
  | Current stacksize for task 241: unlimited
  | Current stacksize for task 242: unlimited
  | Current stacksize for task 243: unlimited
  | Current stacksize for task 244: unlimited
  | Current stacksize for task 245: unlimited
  | Current stacksize for task 246: unlimited
  | Current stacksize for task 247: unlimited
  | Current stacksize for task 248: unlimited
  | Current stacksize for task 249: unlimited
  | Current stacksize for task 250: unlimited
  | Current stacksize for task 251: unlimited
  | Current stacksize for task 252: unlimited
  | Current stacksize for task 253: unlimited
  | Current stacksize for task 254: unlimited
  | Current stacksize for task 255: unlimited

  Consistency checks for the contents of control.in are next.

  MPI_IN_PLACE appears to work with this MPI implementation.
  | Keeping use_mpi_in_place .true. (see manual).
  Target number of points in a grid batch is not set. Defaulting to  100
  Method for grid partitioning is not set. Defaulting to parallel hash+maxmin partitioning.
  Batch size limit is not set. Defaulting to    200
  By default, will store active basis functions for each batch.
  If in need of memory, prune_basis_once .false. can be used to disable this option.
  communication_type for Hartree potential was not specified.
  Defaulting to calc_hartree .
  Pulay mixer: Number of initial linear mixing iterations not set.
  Defaulting to    0 iterations.
  Work space size for distributed Hartree potential not set.
  Defaulting to   0.200000E+03 MB.
  Mixing parameter for charge density mixing has not been set.
  Using default: charge_mix_param =     0.0500.
  The mixing parameter will be adjusted in iteration number     2 of each s.c.f. cycle (i.e., each geometry step).
  Algorithm-dependent basis array size parameters:
  | n_max_pulay                         :       10
  Maximum number of self-consistency iterations not provided.
  Presetting  1000 iterations.
  Presetting      1001 iterations before the initial mixing cycle
  is restarted anyway using the sc_init_iter criterion / keyword.
  Presetting a factor      1.000 between actual scf density residual
  and density convergence criterion sc_accuracy_rho below which sc_init_iter
  takes no effect.
 * No s.c.f. convergence criteria (sc_accuracy_*) were provided in control.in.
 * The run will proceed with a reasonable default guess, but please check whether.
 * the s.c.f. cycles seem to take too much or too little time.
  Calculation of forces was not defined in control.in. No forces will be calculated.
  Geometry relaxation not requested: no relaxation will be performed.
 * Notice: The s.c.f. convergence criterion sc_accuracy_rho was not provided.
 * We used to stop in this case, and ask the user to provide reasonable
 * scf convergence criteria. However, this led some users to employ criteria
 * that led to extremely long run times, e.g., for simple relaxation.
 * We now preset a default value for sc_accuracy_rho if it is not set.
 * You may still wish to check if this setting is too tight or too loose for your needs.
 * Based on n_atoms and forces and force-correction status, FHI-aims chose sc_accuracy_rho =  0.195959E-04 .
  No accuracy limit for integral partition fn. given. Defaulting to  0.1000E-14.
  No threshold value for u(r) in integrations given. Defaulting to  0.1000E-05.
  No accuracy for occupation numbers given. Defaulting to  0.1000E-12.
  No threshold value for occupation numbers given. Defaulting to  0.0000E+00.
  No accuracy for fermi level given. Defaulting to  0.1000E-19.
  Maximum # of iterations to find E_F not set. Defaulting to  200.
  Will not use alltoall communication since running on < 1024 CPUs.
  partition_type (choice of integration weights) for integrals was not specified.
  | Using a version of the partition function of Stratmann and coworkers ('stratmann_sparse').
  | At each grid point, the set of atoms used to build the partition table is smoothly restricted to
  | only those atoms whose free-atom density would be non-zero at that grid point.
  Partitioning for Hartree potential was not defined. Using partition_type for integrals.
  | Adjusted default value of keyword multip_moments_threshold to:       0.10000000E-11
  | This value may affect high angular momentum components of the Hartree potential in periodic systems.
  Spin handling was not defined in control.in. Defaulting to unpolarized case.
  No q(lm)/r^(l+1) cutoff set for long-range Hartree potential.
  | Using default value of  0.100000E-09 .
  | Verify using the multipole_threshold keyword.
  Defaulting to new monopole extrapolation.
  Density update method: density matrix based density update selected.
  Scalapack and density-matrix based density update required:
  Switching to packed matrix format "index" by default.
  Charge integration errors on the 3D integration grid will be compensated
  by explicit normalization and distribution of residual charges.
  Use the "compensate_multipole_errors" flag to change this behaviour.
  Found no potential conflicts with setting 'use_local_index' for this calculation.
  Flag 'use_local_index' has not been set.
  Testing whether we classify this calculation as large-scale ...
  The calculation contains less than 100 atoms. This is most likely not a large-scale calculation.
  Not setting 'use_local_index'.

  Consistency checks for the contents of geometry.in are next.

  Number of empty states per atom not set in control.in - providing a guess from actual geometry.
  | Total number of empty states used during s.c.f. cycle:       72
  If you use a very high smearing, use empty_states (per atom!) in control.in to increase this value.

  Structure-dependent array size parameters: 
  | Maximum number of distinct radial functions  :       64
  | Maximum number of basis functions            :     2496
  | Number of Kohn-Sham states (occupied + empty):      122
------------------------------------------------------------
  After read_input_data [GB]:    222.33

  Performing system and environment tests:
  | Environment variable OMP_NUM_THREADS correctly set to 1.
  | Checking for ScaLAPACK...
  | Testing pdtran()...
  | All pdtran() tests passed.
  After prepare_system [GB]:    222.28

------------------------------------------------------------
          Preparing all fixed parts of the calculation.
------------------------------------------------------------
  Determining machine precision:
     2.2250738585072014E-308
  Setting up grids for atomic and cluster calculations.

  Creating wave function, potential, and density for free atoms.
  Runtime choices for atomic solver:
  | atomic solver xc        : PBE
  | compute density gradient: 1
  | compute kinetic density : F

  Species: O

  List of occupied orbitals and eigenvalues:
    n    l              occ      energy [Ha]    energy [eV]
    1    0           2.0000       -18.927378      -515.0401
    2    0           2.0000        -0.880539       -23.9607
    2    1           4.0000        -0.331811        -9.0290


  Species: H

  List of occupied orbitals and eigenvalues:
    n    l              occ      energy [Ha]    energy [eV]
    1    0           1.0000        -0.238386        -6.4868


  Species: C

  List of occupied orbitals and eigenvalues:
    n    l              occ      energy [Ha]    energy [eV]
    1    0           2.0000       -10.049212      -273.4530
    2    0           2.0000        -0.504761       -13.7352
    2    1           2.0000        -0.193631        -5.2690


  Adding cutoff potential to free-atom effective potential.
  Creating fixed part of basis set: Ionic, confined, hydrogenic.

  O                    hydrogenic:

  List of hydrogenic basis orbitals: 
    n    l      effective z      eigenvalue [eV]  inner max. [A]     outer max. [A]     outer radius [A]   
    1    0         2.094699       -59.6986           0.252574           0.252574           4.413171
    1    0         3.536189      -170.1342           0.149311           0.149311           2.673448
    1    0         5.969657      -484.8635           0.088266           0.088266           1.619544
    1    0        10.077743     -1381.8065           0.052821           0.052821           0.969180
    2    1         2.208370       -16.5876           0.957404           0.957404           5.366593
    2    1         3.617676       -44.5164           0.587118           0.587118           5.048385
    2    1         5.926352      -119.4636           0.355670           0.355670           3.629133
    2    1         9.708345      -320.5908           0.218111           0.218111           2.252903
    3    2         7.122029       -76.6806           0.671626           0.671626           4.807458
    3    2         9.466918      -135.4863           0.500848           0.500848           3.811008
    3    2        12.583848      -239.3895           0.378088           0.378088           2.912303
    3    2        16.727011      -422.9751           0.285417           0.285417           2.198487
    4    3        12.999155      -143.6915           0.647440           0.647440           4.051222
    4    3        15.673591      -208.8996           0.538966           0.538966           3.372465
    4    3        18.898263      -303.6998           0.448665           0.448665           2.807429
    5    4        21.037388      -240.8598           0.631802           0.631802           3.413946
    5    4        24.092999      -315.9093           0.552306           0.552306           2.984386
    6    5        30.609779      -354.1103           0.624125           0.624125           3.021094
    1    0        16.830504     -3854.0284           0.031609           0.031609           0.587118
    1    0        24.698762     -8299.8649           0.021376           0.021376           0.406863
    2    1        12.012456      -490.8223           0.177182           0.177182           1.830144


  H                    hydrogenic:

  List of hydrogenic basis orbitals: 
    n    l      effective z      eigenvalue [eV]  inner max. [A]     outer max. [A]     outer radius [A]   
    1    0         1.117796       -16.9998           0.471713           0.471713           5.243229
    1    0         1.560469       -33.1307           0.339100           0.339100           4.993004
    1    0         2.178453       -64.5680           0.243769           0.243769           4.259334
    1    0         3.041173      -125.8354           0.173109           0.173109           3.099570
    2    1         2.805454       -26.7711           0.750636           0.750636           5.243229
    2    1         3.986533       -54.0569           0.533053           0.533053           4.932336
    2    1         5.664838      -109.1530           0.373940           0.373940           3.815562
    2    1         8.049700      -220.4043           0.262322           0.262322           2.709566
    3    2         5.999621       -54.4159           0.797950           0.797950           5.054418
    3    2         7.923827       -94.9179           0.602369           0.602369           4.527807
    3    2        10.465166      -165.5657           0.454726           0.454726           3.460068
    4    3        10.683842       -97.0634           0.788254           0.788254           4.754720
    4    3        13.307154      -150.5813           0.632557           0.632557           3.958095
    5    4        16.734816      -152.4132           0.788254           0.788254           4.259334
    1    0         4.245551      -245.2385           0.124443           0.124443           2.255595


  C                    hydrogenic:

  List of hydrogenic basis orbitals: 
    n    l      effective z      eigenvalue [eV]  inner max. [A]     outer max. [A]     outer radius [A]   
    1    0         1.622655       -35.8239           0.324638           0.324638           4.958612
    1    0         3.227401      -141.7185           0.163712           0.163712           2.931316
    1    0         6.419181      -560.6346           0.082559           0.082559           1.496423
    1    0        12.767515     -2217.8561           0.041634           0.041634           0.773313
    2    1         2.417147       -19.8729           0.873872           0.873872           5.335997
    2    1         4.104363       -57.2997           0.516595           0.516595           4.838844
    2    1         6.969288      -165.2105           0.305389           0.305389           3.116082
    2    1        11.833988      -476.3464           0.178339           0.178339           1.864750
    3    2         5.110612       -39.4842           0.928953           0.928953           5.207114
    3    2         6.861049       -71.1638           0.692743           0.692743           4.898362
    3    2         9.211029      -128.2609           0.516595           0.516595           3.930832
    3    2        12.365902      -231.1691           0.385237           0.385237           2.931316
    4    3        10.518516       -94.0827           0.802200           0.802200           4.780049
    4    3        11.504441      -112.5464           0.736407           0.736407           4.551928
    4    3        12.582780      -134.6337           0.676011           0.676011           4.178599
    5    4        16.246179      -143.6426           0.812068           0.812068           4.388011
    5    4        16.791728      -153.4516           0.792453           0.792453           4.282025
    6    5        22.554400      -192.2564           0.842403           0.842403           4.077671
    1    0        15.611419     -3315.9305           0.033821           0.033821           0.635927
    1    0        29.661599    -11970.4306           0.017911           0.017911           0.340907
    2    1        10.714335      -390.4731           0.196662           0.196662           2.056339

  Creating atomic-like basis functions for current effective potential.

  Species O                   :

  List of atomic basis orbitals and eigenvalues:
    n    l      energy [Ha]    energy [eV]    outer radius [A]
    1    0       -18.927378      -515.0401       1.415765
    2    0        -0.880539       -23.9607       5.048385
    2    1        -0.331811        -9.0290       5.301386


  Species H                   :

  List of atomic basis orbitals and eigenvalues:
    n    l      energy [Ha]    energy [eV]    outer radius [A]
    1    0        -0.238386        -6.4868       5.373006


  Species C                   :

  List of atomic basis orbitals and eigenvalues:
    n    l      energy [Ha]    energy [eV]    outer radius [A]
[...]
  Polynomial ifit point:               5
  Polynomial coeffs size:               5
  Polynomial coeffs:       0.379E-09
  Polynomial coeffs:               4
  Polynomial derivative coeffs:       0.692E-04
  Polynomial coeffs:               4
  Polynomial derivative coeffs:      -0.108E-03
  Polynomial coeffs:               4
  Polynomial derivative coeffs:       0.358E-08
  Polynomial coeffs:               4
  Polynomial derivative coeffs:       0.152E-08
  Final mu_opt value:       0.640E+00
  Cost function at iteration  24:  0.57520994E+02
  Convergence criteria at iteration   24:  0.57652462E-05
  LMO optimisation converged!
  Final cost function value:          57.52099381
  Evaluating Hirshfeld population matrix using the KS eigenstates.
  ------------------------------------------------------------
 Exporting DM for embedding
  Evaluating density matrix
      Allocating      0.410 MB for tmp
      Allocating      0.451 MB for tmp
      Deallocating tmp
      Deallocating tmp
  Finished density matrix calculation
  | Time :     0.005 s
 Exporting DM for embedding
  Evaluating density matrix
      Allocating      0.410 MB for tmp
      Allocating      0.451 MB for tmp
      Deallocating tmp
      Deallocating tmp
  Finished density matrix calculation
  | Time :     0.005 s
  Finished localisation of CMOs in           2.698 s

  ------------------------------------------------------------
            Completed Unitary Localisation of CMOs
  ------------------------------------------------------------

  Integrating Hamiltonian matrix: batch-based integration.
  Time summed over all CPUs for integration: real work      885.705 s, elapsed      961.382 s
          Integrate hamiltonian matrix - separate compo:  max(cpu_time)    wall_clock(cpu1)
          | Total time                                  :        7.747 s           7.747 s
  Writing Kohn-Sham eigenvalues.

  State    Occupation    Eigenvalue [Ha]    Eigenvalue [eV]
      1       2.00000         -18.791493         -511.34253
      2       2.00000         -18.766919         -510.67385
      3       2.00000          -9.943912         -270.58760
      4       2.00000          -9.926043         -270.10137
      5       2.00000          -9.893094         -269.20479
      6       2.00000          -9.892761         -269.19573
      7       2.00000          -9.892147         -269.17901
      8       2.00000          -9.884769         -268.97825
      9       2.00000          -9.883467         -268.94281
     10       2.00000          -9.882591         -268.91898
     11       2.00000          -9.880138         -268.85223
     12       2.00000          -9.876996         -268.76675
     13       2.00000          -0.945204          -25.72031
     14       2.00000          -0.925885          -25.19462
     15       2.00000          -0.736162          -20.03198
     16       2.00000          -0.725559          -19.74346
     17       2.00000          -0.683961          -18.61153
     18       2.00000          -0.672053          -18.28749
     19       2.00000          -0.612175          -16.65813
     20       2.00000          -0.598891          -16.29665
     21       2.00000          -0.541535          -14.73592
     22       2.00000          -0.529820          -14.41713
     23       2.00000          -0.523891          -14.25581
     24       2.00000          -0.513066          -13.96122
     25       2.00000          -0.469223          -12.76820
     26       2.00000          -0.451577          -12.28803
     27       2.00000          -0.441157          -12.00448
     28       2.00000          -0.430029          -11.70167
     29       2.00000          -0.407152          -11.07916
     30       2.00000          -0.395949          -10.77431
     31       2.00000          -0.386298          -10.51169
     32       2.00000          -0.376167          -10.23602
     33       2.00000          -0.374844          -10.20003
     34       2.00000          -0.366268           -9.96665
     35       2.00000          -0.356095           -9.68985
     36       2.00000          -0.345241           -9.39450
     37       2.00000          -0.338753           -9.21794
     38       2.00000          -0.327802           -8.91995
     39       2.00000          -0.307239           -8.36039
     40       2.00000          -0.304528           -8.28662
     41       2.00000          -0.297635           -8.09906
     42       2.00000          -0.296982           -8.08128
     43       2.00000          -0.291200           -7.92395
     44       2.00000          -0.288585           -7.85279
     45       2.00000          -0.286268           -7.78975
     46       2.00000          -0.283342           -7.71013
     47       2.00000          -0.277443           -7.54960
     48       2.00000          -0.266085           -7.24055
     49       2.00000          -0.239489           -6.51682
     50       2.00000          -0.214885           -5.84731
     51       0.00000          -0.023762           -0.64661
     52       0.00000          -0.007050           -0.19185
     53       0.00000          -0.001374           -0.03738
     54       0.00000           0.003251            0.08847
     55       0.00000           0.010720            0.29169
     56       0.00000           0.013442            0.36579
     57       0.00000           0.017911            0.48738
     58       0.00000           0.020019            0.54474
     59       0.00000           0.025012            0.68062
     60       0.00000           0.032542            0.88550
     61       0.00000           0.043379            1.18042
     62       0.00000           0.049846            1.35637
     63       0.00000           0.052418            1.42636
     64       0.00000           0.055838            1.51943
     65       0.00000           0.062247            1.69383
     66       0.00000           0.068526            1.86470
     67       0.00000           0.069391            1.88823
     68       0.00000           0.071532            1.94649
     69       0.00000           0.075754            2.06137
     70       0.00000           0.080519            2.19104
     71       0.00000           0.082908            2.25605
     72       0.00000           0.087058            2.36897
     73       0.00000           0.092522            2.51764
     74       0.00000           0.093810            2.55271
     75       0.00000           0.102044            2.77675
     76       0.00000           0.103434            2.81459
     77       0.00000           0.118173            3.21566
     78       0.00000           0.119715            3.25761
     79       0.00000           0.127582            3.47168
     80       0.00000           0.133086            3.62145
     81       0.00000           0.139522            3.79659
     82       0.00000           0.140154            3.81379
     83       0.00000           0.145915            3.97054
     84       0.00000           0.149062            4.05619
     85       0.00000           0.153167            4.16790
     86       0.00000           0.160272            4.36123
     87       0.00000           0.165033            4.49078
     88       0.00000           0.168575            4.58717
     89       0.00000           0.173450            4.71981
     90       0.00000           0.176559            4.80441
     91       0.00000           0.178937            4.86914
     92       0.00000           0.182086            4.95482
     93       0.00000           0.184373            5.01705
     94       0.00000           0.191919            5.22238
     95       0.00000           0.192462            5.23717
     96       0.00000           0.198119            5.39108
     97       0.00000           0.202983            5.52345
     98       0.00000           0.205563            5.59366
     99       0.00000           0.208422            5.67145
    100       0.00000           0.211393            5.75229
    101       0.00000           0.217775            5.92597
    102       0.00000           0.220196            5.99183
    103       0.00000           0.221811            6.03578
    104       0.00000           0.222393            6.05161
    105       0.00000           0.223846            6.09115
    106       0.00000           0.229143            6.23529
    107       0.00000           0.231430            6.29754
    108       0.00000           0.237243            6.45571
    109       0.00000           0.239409            6.51466
    110       0.00000           0.245788            6.68824
    111       0.00000           0.250171            6.80750
    112       0.00000           0.255285            6.94665
    113       0.00000           0.257026            6.99403
    114       0.00000           0.261861            7.12560
    115       0.00000           0.263141            7.16044
    116       0.00000           0.267307            7.27380
    117       0.00000           0.271647            7.39190
    118       0.00000           0.274443            7.46798
    119       0.00000           0.276483            7.52349
    120       0.00000           0.277428            7.54919
    121       0.00000           0.283959            7.72691
    122       0.00000           0.290684            7.90992

  Highest occupied state (VBM) at     -5.84731015 eV
  | Occupation number:      2.00000000

  Lowest unoccupied state (CBM) at    -0.64660772 eV
  | Occupation number:      0.00000000

  Overall HOMO-LUMO gap:      5.20070243 eV.

  | Chemical Potential                          :    -3.24695894 eV
  | Note that, for insulating systems, the printed 'chemical potential' value is not uniquely defined.
  | It can be anywhere in the energy gap, as long as it correctly separates occupied and unoccupied states.
  | In systems with a gap, the physically relevant chemical potential is the VBM or HOMO.

  Self-consistency cycle converged.


------------------------------------------------------------
  End self-consistency iteration #    14       :  max(cpu_time)    wall_clock(cpu1)
  | Time for this iteration                     :       13.974 s          14.099 s
  | Charge density update                       :        0.000 s           0.000 s
  | Density mixing                              :        0.006 s           0.006 s
  | Hartree multipole update                    :        0.006 s           0.006 s
  | Hartree multipole summation                 :        0.122 s           0.122 s
  | Integration                                 :        2.651 s           2.651 s
  | Solution of K.-S. eqns.                     :        0.359 s           0.359 s
  | Total energy evaluation                     :        0.000 s           0.001 s

  Partial memory accounting:
  | Current value for overall tracked memory usage:
  |   Minimum:       39.918 MB (on task 127)
  |   Maximum:       40.193 MB (on task  43)
  |   Average:       40.072 MB
  | Peak value for overall tracked memory usage:
  |   Minimum:      176.050 MB (on task 112 after allocating wave)
  |   Maximum:      200.265 MB (on task 113 after allocating wave)
  |   Average:      187.537 MB
  | Largest tracked array allocation so far:
  |   Minimum:       47.531 MB (dm_dump on task   0)
  |   Maximum:       47.531 MB (dm_dump on task   0)
  |   Average:       47.531 MB
  Note:  These values currently only include a subset of arrays which are explicitly tracked.
  The "true" memory usage will be greater.
------------------------------------------------------------

  Energy and forces in a compact form:
  | Total energy uncorrected      :         -0.148550004849143E+05 eV
  | Total energy corrected        :         -0.148550004849143E+05 eV  <-- do not rely on this value for anything but (periodic) metals
  | Electronic free energy        :         -0.148550004849143E+05 eV

  ------------------------------------ 
  Start decomposition of the XC Energy 
  ------------------------------------ 
  X and C from original XC functional choice 
  Hartree-Fock Energy :          0.000000000 Ha              0.000000000 eV
  X Energy            :        -76.551393277 Ha          -2083.069396481 eV
  C Energy            :         -3.245719252 Ha            -88.320514547 eV
  XC Energy w/o HF    :        -79.797112529 Ha          -2171.389911028 eV
  Total XC Energy     :        -79.797112529 Ha          -2171.389911028 eV
  ------------------------------------ 
  LDA X and C from self-consistent density 
  X Energy LDA        :        -69.360635294 Ha          -1887.398916140 eV
  C Energy LDA        :         -6.279676967 Ha           -170.878704497 eV
  ------------------------------------ 
  End decomposition of the XC Energy 
  ------------------------------------ 

------------------------------------------------------------
------------------------------------------------------------

------------------------------------------------------------------------------
  Final output of selected total energy values:

  The following output summarizes some interesting total energy values
  at the end of a run (AFTER all relaxation, molecular dynamics, etc.).

  | Total energy of the DFT / Hartree-Fock s.c.f. calculation      :         -14855.000484914 eV
  | Final zero-broadening corrected energy (caution - metals only) :         -14855.000484914 eV
  | For reference only, the value of 1 Hartree used in FHI-aims is :             27.211384500 eV

  Before relying on these values, please be sure to understand exactly which
  total energy value is referred to by a given number. Different objects may
  all carry the same name 'total energy'. Definitions:

  Total energy of the DFT / Hartree-Fock s.c.f. calculation:
  | Note that this energy does not include ANY quantities calculated after the
  | s.c.f. cycle, in particular not ANY RPA, MP2, etc. many-body perturbation terms.

  Final zero-broadening corrected energy:
  | For metallic systems only, a broadening of the occupation numbers at the Fermi
  | level can be extrapolated back to zero broadening by an electron-gas inspired
  | formula. For all systems that are not real metals, this value can be
  | meaningless and should be avoided.

------------------------------------------------------------------------------
  Methods described in the following list of references were used in this FHI-aims run.
  If you publish the results, please make sure to cite these reference if they apply.
  FHI-aims is an academic code, and for our developers (often, Ph.D. students
  and postdocs), scientific credit in the community is essential.
  Thank you for helping us!

  For any use of FHI-aims, please cite:

    Volker Blum, Ralf Gehrke, Felix Hanke, Paula Havu, Ville Havu,
    Xinguo Ren, Karsten Reuter, and Matthias Scheffler
    'Ab initio molecular simulations with numeric atom-centered orbitals'
    Computer Physics Communications 180, 2175-2196 (2009)
    http://doi.org/10.1016/j.cpc.2009.06.022


  For the NAO-VCC-nZ basis sets used in this calculation, please cite:

    Igor Ying Zhang, Xinguo Ren, Patrick Rinke, Volker Blum, and Matthias Scheffler
    'Numeric atom-centered-orbital basis sets with valence-correlation consistency from H to Ar'
    New Journal of Physics 15, 123033 (2013).
    http://doi.org/10.1088/1367-2630/15/12/123033


  The ELSI infrastructure was used in your run to solve the Kohn-Sham electronic structure.
  Please check out https://wordpress.elsi-interchange.org to learn more.
  If scalability is important for your project, please acknowledge ELSI by citing:

    V. W-z. Yu, F. Corsetti, A. Garcia, W. P. Huhn, M. Jacquelin, W. Jia,
    B. Lange, L. Lin, J. Lu, W. Mi, A. Seifitokaldani, A. Vazquez-Mayagoitia,
    C. Yang, H. Yang, and V. Blum
    'ELSI: A unified software interface for Kohn-Sham electronic structure solvers'
    Computer Physics Communications 222, 267-285 (2018).
    http://doi.org/10.1016/j.cpc.2017.09.007


  For the real-space grid partitioning and parallelization used in this calculation, please cite:

    Ville Havu, Volker Blum, Paula Havu, and Matthias Scheffler,
    'Efficient O(N) integration for all-electron electronic structure calculation'
    'using numerically tabulated basis functions'
    Journal of Computational Physics 228, 8367-8379 (2009).
    http://doi.org/10.1016/j.jcp.2009.08.008


  The high-level electronic structure method used in your calculation
  employed our efficient localized resolution of identity for the Coulomb operator.
  Some calculations, especially large-scale hybrid density functional theory,
  are only possible thanks to this development. For this feature, please cite:

    Arvid Ihrig, Juergen Wieferink, Igor Ying Zhang, Matti Ropo, Xinguo Ren,
    Patrick Rinke, Matthias Scheffler, and Volker Blum,
    'Accurate localized resolution of identity approach for linear-scaling
    hybrid density functionals and for many-body perturbation theory'
    New Journal of Physics 117, 093020 (2015).
    http://doi.org/10.1088/1367-2630/17/9/093020

  Of course, there are many other important community references, e.g., those cited in the
  above references. Our list is limited to references that describe implementations in the
  FHI-aims code. The reason is purely practical (length of this list) - please credit others as well.
------------------------------------------------------------
Warnings summary:

At least    2 warnings were raised during execution.

------------------------------------------------------------
          Leaving FHI-aims.
          Date     :  20250703, Time     :  060057.474

          Computational steps:
          | Number of self-consistency cycles          :           14
          | Number of SCF (re)initializations          :            1

          Detailed time accounting                     :  max(cpu_time)    wall_clock(cpu1)
          | Total time                                  :      136.365 s         137.859 s
          | Preparation time                            :        0.354 s           0.435 s
          | Boundary condition initalization            :        0.034 s           0.034 s
          | Grid partitioning                           :        1.028 s           1.040 s
          | Preloading free-atom quantities on grid     :        0.230 s           0.233 s
          | Free-atom superposition energy              :        0.019 s           0.019 s
          | Total time for integrations                 :       41.804 s          41.876 s
          | Total time for solution of K.-S. equations  :        5.760 s           5.825 s
          | Total time for density update               :       72.704 s          72.711 s
          | Total time for mixing                       :        0.063 s           0.231 s
          | Total time for Hartree multipole update     :        0.090 s           0.109 s
          | Total time for Hartree multipole sum        :        1.702 s           1.707 s
          | Total time for total energy evaluation      :        0.010 s           0.010 s
          | Total time for scaled ZORA corrections      :        0.000 s           0.000 s

          Partial memory accounting:
          | Residual value for overall tracked memory usage across tasks:     0.000000 MB (should be 0.000000 MB)
          | Peak values for overall tracked memory usage:
          |   Minimum:      176.050 MB (on task 112 after allocating wave)
          |   Maximum:      200.265 MB (on task 113 after allocating wave)
          |   Average:      187.537 MB
          | Largest tracked array allocation:
          |   Minimum:       47.531 MB (dm_dump on task   0)
          |   Maximum:       47.531 MB (dm_dump on task   0)
          |   Average:       47.531 MB
          Note:  These values currently only include a subset of arrays which are explicitly tracked.
          The "true" memory usage will be greater.

          Have a nice day.
------------------------------------------------------------
