------------------------------------------------------------
          Invoking FHI-aims ...

          When using FHI-aims, please cite the following reference:

            Volker Blum, Ralf Gehrke, Felix Hanke, Paula Havu,
            Ville Havu, Xinguo Ren, Karsten Reuter, and Matthias Scheffler,
            'Ab Initio Molecular Simulations with Numeric Atom-Centered Orbitals',
            Computer Physics Communications 180, 2175-2196 (2009)

          In addition, many other developments in FHI-aims are likely important for
          your particular application. If so, please cite them. A partial list of references
          is written at the end of this file. Thank you for giving credit to the authors
          of these developments.

          For general information about FHI-aims please find us at

            https://fhi-aims.org

          Online tutorials can be found at

            https://fhi-aims-club.gitlab.io/tutorials/tutorials-overview/

          For any questions about FHI-aims, please visit our slack channel at

            https://fhi-aims.slack.com

          and our main development and support site at

            https://aims-git.rz-berlin.mpg.de .

          The latter site, in particular, has a wiki to collect information, as well
          as an issue tracker to log discussions, suggest improvements, and report issues
          or bugs. https://aims-git.rz-berlin.mpg.de is also the main development site
          of the project and all new and updated code versions can be obtained there.
          Please send an email to aims-coordinators@fhi-berlin.mpg.de and we will add
          you to these sites. They are for you and everyone is welcome there.

------------------------------------------------------------



  Date     :  20250629, Time     :  070817.385
  Time zero on CPU 1             :   0.729527000000000E+01  s.
  Internal wall clock time zero  :           520412897.385  s.

  FHI-aims created a unique identifier for this run for later identification
  aims_uuid : 052BD9F4-CD70-43E2-AAEE-683BE3311AA2

  Build configuration of the current instance of FHI-aims
  -------------------------------------------------------
  FHI-aims version      : 250403
  Commit number         : 316072d87
  CMake host system     : Linux-5.14.21-150400.24.46_12.0.70-cray_shasta_c
  CMake version         : 3.20.4
  Fortran compiler      : /opt/cray/pe/craype/2.7.19/bin/ftn (GNU) version 11.2.0
  Fortran compiler flags: -O2 -fPIC -fallow-argument-mismatch -ffree-line-length-none
  C compiler            : /opt/cray/pe/craype/2.7.19/bin/cc (GNU) version 11.2.0
  C compiler flags      : -O2
  C++ compiler          : /opt/cray/pe/gcc/11.2.0/bin/c++ (GNU) version 11.2.0
  C++ compiler flags    : -O2
  HIP compiler          :
  HIP compiler flags    :
  HIP GPU arch          :
  Using MPI
  Using ScaLAPACK
  Using LibXC
  Using i-PI
  Using RLSY
  Linking against:

  Using      128 parallel tasks.
  Task        0 on host nid002128 reporting.
  Task        1 on host nid002128 reporting.
  Task        2 on host nid002128 reporting.
  Task        3 on host nid002128 reporting.
  Task        4 on host nid002128 reporting.
  Task        5 on host nid002128 reporting.
  Task        6 on host nid002128 reporting.
  Task        7 on host nid002128 reporting.
  Task        8 on host nid002128 reporting.
  Task        9 on host nid002128 reporting.
  Task       10 on host nid002128 reporting.
  Task       11 on host nid002128 reporting.
  Task       12 on host nid002128 reporting.
  Task       13 on host nid002128 reporting.
  Task       14 on host nid002128 reporting.
  Task       15 on host nid002128 reporting.
  Task       16 on host nid002128 reporting.
  Task       17 on host nid002128 reporting.
  Task       18 on host nid002128 reporting.
  Task       19 on host nid002128 reporting.
  Task       20 on host nid002128 reporting.
  Task       21 on host nid002128 reporting.
  Task       22 on host nid002128 reporting.
  Task       23 on host nid002128 reporting.
  Task       24 on host nid002128 reporting.
  Task       25 on host nid002128 reporting.
  Task       26 on host nid002128 reporting.
  Task       27 on host nid002128 reporting.
  Task       28 on host nid002128 reporting.
  Task       29 on host nid002128 reporting.
  Task       30 on host nid002128 reporting.
  Task       31 on host nid002128 reporting.
  Task       32 on host nid002128 reporting.
  Task       33 on host nid002128 reporting.
  Task       34 on host nid002128 reporting.
  Task       35 on host nid002128 reporting.
  Task       36 on host nid002128 reporting.
  Task       37 on host nid002128 reporting.
  Task       38 on host nid002128 reporting.
  Task       39 on host nid002128 reporting.
  Task       40 on host nid002128 reporting.
  Task       41 on host nid002128 reporting.
  Task       42 on host nid002128 reporting.
  Task       43 on host nid002128 reporting.
  Task       44 on host nid002128 reporting.
  Task       45 on host nid002128 reporting.
  Task       46 on host nid002128 reporting.
  Task       47 on host nid002128 reporting.
  Task       48 on host nid002128 reporting.
  Task       49 on host nid002128 reporting.
  Task       50 on host nid002128 reporting.
  Task       51 on host nid002128 reporting.
  Task       52 on host nid002128 reporting.
  Task       53 on host nid002128 reporting.
  Task       54 on host nid002128 reporting.
  Task       55 on host nid002128 reporting.
  Task       56 on host nid002128 reporting.
  Task       57 on host nid002128 reporting.
  Task       58 on host nid002128 reporting.
  Task       59 on host nid002128 reporting.
  Task       60 on host nid002128 reporting.
  Task       61 on host nid002128 reporting.
  Task       62 on host nid002128 reporting.
  Task       63 on host nid002128 reporting.
  Task       64 on host nid002128 reporting.
  Task       65 on host nid002128 reporting.
  Task       66 on host nid002128 reporting.
  Task       67 on host nid002128 reporting.
  Task       68 on host nid002128 reporting.
  Task       69 on host nid002128 reporting.
  Task       70 on host nid002128 reporting.
  Task       71 on host nid002128 reporting.
  Task       72 on host nid002128 reporting.
  Task       73 on host nid002128 reporting.
  Task       74 on host nid002128 reporting.
  Task       75 on host nid002128 reporting.
  Task       76 on host nid002128 reporting.
  Task       77 on host nid002128 reporting.
  Task       78 on host nid002128 reporting.
  Task       79 on host nid002128 reporting.
  Task       80 on host nid002128 reporting.
  Task       81 on host nid002128 reporting.
  Task       82 on host nid002128 reporting.
  Task       83 on host nid002128 reporting.
  Task       84 on host nid002128 reporting.
  Task       85 on host nid002128 reporting.
  Task       86 on host nid002128 reporting.
  Task       87 on host nid002128 reporting.
  Task       88 on host nid002128 reporting.
  Task       89 on host nid002128 reporting.
  Task       90 on host nid002128 reporting.
  Task       91 on host nid002128 reporting.
  Task       92 on host nid002128 reporting.
  Task       93 on host nid002128 reporting.
  Task       94 on host nid002128 reporting.
  Task       95 on host nid002128 reporting.
  Task       96 on host nid002128 reporting.
  Task       97 on host nid002128 reporting.
  Task       98 on host nid002128 reporting.
  Task       99 on host nid002128 reporting.
  Task      100 on host nid002128 reporting.
  Task      101 on host nid002128 reporting.
  Task      102 on host nid002128 reporting.
  Task      103 on host nid002128 reporting.
  Task      104 on host nid002128 reporting.
  Task      105 on host nid002128 reporting.
  Task      106 on host nid002128 reporting.
  Task      107 on host nid002128 reporting.
  Task      108 on host nid002128 reporting.
  Task      109 on host nid002128 reporting.
  Task      110 on host nid002128 reporting.
  Task      111 on host nid002128 reporting.
  Task      112 on host nid002128 reporting.
  Task      113 on host nid002128 reporting.
  Task      114 on host nid002128 reporting.
  Task      115 on host nid002128 reporting.
  Task      116 on host nid002128 reporting.
  Task      117 on host nid002128 reporting.
  Task      118 on host nid002128 reporting.
  Task      119 on host nid002128 reporting.
  Task      120 on host nid002128 reporting.
  Task      121 on host nid002128 reporting.
  Task      122 on host nid002128 reporting.
  Task      123 on host nid002128 reporting.
  Task      124 on host nid002128 reporting.
  Task      125 on host nid002128 reporting.
  Task      126 on host nid002128 reporting.
  Task      127 on host nid002128 reporting.

  Obtaining array dimensions for all initial allocations:
  
  -----------------------------------------------------------------------
  Parsing control.in (first pass over file, find array dimensions only).
  The contents of control.in will be repeated verbatim below
  unless switched off by setting 'verbatim_writeout .false.' .
  in the first line of control.in .
  -----------------------------------------------------------------------
  
  #===============================================================================
  # Created using the Atomic Simulation Environment (ASE)
  
  # Sun Jun 29 07:08:14 2025
  
  #===============================================================================
  xc                                 PBE0
  output_level                       full
  relativistic                       atomic_zora scalar
  occupation_type                    gaussian 0.01
  mixer                              pulay
  n_max_pulay                        10
  KS_method                          parallel
  RI_method                          LVL
  collect_eigenvectors               .true.
  density_update_method              density_matrix
  atomic_solver_xc                   PBE
  basis_threshold                    1e-05
  override_illconditioning           .true.
  override_initial_charge_check      .true.
  use_2d_corr                        .false.
  charge                             -0.0
  #===============================================================================
  
  ################################################################################
  #
  #  FHI-aims code project
  # Igor Ying Zhang and Xinguo Ren, Fritz Haber Institute Berlin, 2012
  #
  #  Suggested "NAO-VCC-4Z" defaults for C atom (to be pasted into control.in file)
  #
  #  Please cite:
  #
  #  Igor Ying Zhang, Xinguo Ren, Patrick Rinke, Volker Blum, and Matthias Scheffler,
  #  "Numeric atom-centered-orbital basis sets with valence-correlation consistency from H to Ar"
  #  New Journal of Physics 15, 123033 (2013).
  #  http://dx.doi.org/10.1088/1367-2630/15/12/123033
  #
  ################################################################################
    species        C
  #     set basis set reference for FHI-aims output
      cite_reference NAO-VCC-2013
  #     global species definitions
      nucleus             6
      mass                12.0107
  #
      l_hartree           6
  #
      cut_pot             4.0  2.0  1.0
      basis_dep_cutoff    0e-4
  #
      radial_base         34 7.0
      radial_multiplier   2
      angular_grids       specified
        division   0.2187   50
        division   0.4416  110
        division   0.6335  194
        division   0.7727  302
        division   0.8772  434
        division   0.9334  590
  #      division   0.9924  770
  #      division   1.0230  974
  #      division   1.5020 1202
  #      outer_grid  974
        outer_grid  770
  #      outer_grid  434
  ################################################################################
  #
  #  Definition of "minimal" basis
  #
  ################################################################################
  #     valence basis states
      valence      2  s   2.
      valence      2  p   2.
  #     ion occupancy
      ion_occ      2  s   1.
      ion_occ      2  p   1.
  ################################################################################
  
   basis_acc              1e-04
  #============================================
  # Optimization in      C for       NAO-VCC-4Z
  #============================================
  # (sp) correlation set
   hydro     1     s      1.59552887
   hydro     1     s      3.22975008
   hydro     1     s      6.53782314
   hydro     2     p      1.88700333
   hydro     2     p      4.55825829
   hydro     2     p     11.01096026
  # polarization set
   hydro     3     d      5.23072384
   hydro     3     d      7.65256819
   hydro     3     d     11.19573537
   hydro     4     f     10.64515589
   hydro     4     f     10.80040634
   hydro     5     g     15.74137862
  # (sp) enhanced minimal set
   hydro     1     s     13.75313803
   hydro     1     s     25.85761452
   hydro     2     p     10.26613499
  ################################################################################
  #
  #  FHI-aims code project
  # Igor Ying Zhang and Xinguo Ren, Fritz Haber Institute Berlin, 2012
  #
  #  Suggested "NAO-VCC-4Z" defaults for O atom (to be pasted into control.in file)
  #
  #  Please cite:
  #
  #  Igor Ying Zhang, Xinguo Ren, Patrick Rinke, Volker Blum, and Matthias Scheffler,
  #  "Numeric atom-centered-orbital basis sets with valence-correlation consistency from H to Ar"
  #  New Journal of Physics 15, 123033 (2013).
  #  http://dx.doi.org/10.1088/1367-2630/15/12/123033
  #
  ################################################################################
    species        O
  #     set basis set reference for FHI-aims output
      cite_reference NAO-VCC-2013
  #     global species definitions
      nucleus             8
      mass                15.9994
  #
      l_hartree           6
  #
      cut_pot             4.0  2.0  1.0
      basis_dep_cutoff    0e-4
  #
      radial_base         36 7.0
      radial_multiplier   2
      angular_grids       specified
        division   0.1817   50
        division   0.3417  110
        division   0.4949  194
        division   0.6251  302
        division   0.8014  434
        division   0.8507  590
  #      division   0.8762  770
  #      division   0.9023  974
  #      division   1.2339 1202
  #      outer_grid 974
        outer_grid 770
  #      outer_grid  434
  ################################################################################
  #
  #  Definition of "minimal" basis
  #
  ################################################################################
  #     valence basis states
      valence      2  s   2.
      valence      2  p   4.
  #     ion occupancy
      ion_occ      2  s   1.
      ion_occ      2  p   3.
  ################################################################################
  
   basis_acc              1e-04
  #============================================
  # Optimization in      O for       NAO-VCC-4Z
  #============================================
  # (sp) correlation set
   hydro     1     s      1.97025429
   hydro     1     s      3.00715580
   hydro     1     s      4.58975577
   hydro     2     p      2.37547698
   hydro     2     p      4.13958594
   hydro     2     p      7.21378144
  # polarization set
   hydro     3     d      7.17199177
   hydro     3     d     10.00249673
   hydro     3     d     13.95009140
   hydro     4     f     13.01612808
   hydro     4     f     16.02897865
   hydro     5     g     21.81608270
  # (sp) enhanced minimal basis
   hydro     1     s      9.96117536
   hydro     1     s     15.55417882
   hydro     2     p      7.62429018
  ################################################################################
  #
  #  FHI-aims code project
  # Igor Ying Zhang and Xinguo Ren, Fritz Haber Institute Berlin, 2012
  #
  #  Suggested "NAO-VCC-4Z" defaults for H atom (to be pasted into control.in file)
  #
  #  Please cite:
  #
  #  Igor Ying Zhang, Xinguo Ren, Patrick Rinke, Volker Blum, and Matthias Scheffler,
  #  "Numeric atom-centered-orbital basis sets with valence-correlation consistency from H to Ar"
  #  New Journal of Physics 15, 123033 (2013).
  #  http://dx.doi.org/10.1088/1367-2630/15/12/123033
  #
  ################################################################################
    species        H
  #     set basis set reference for FHI-aims output
      cite_reference NAO-VCC-2013
  #     global species definitions
      nucleus             1
      mass                1.00794
  #
      l_hartree           6
  #
      cut_pot             4.0  2.0  1.0
      basis_dep_cutoff    0e-4
  #
      radial_base         24 7.0
      radial_multiplier   2
      angular_grids       specified
        division   0.1930   50
        division   0.3175  110
        division   0.4293  194
        division   0.5066  302
        division   0.5626  434
        division   0.5922  590
  #      division   0.6227  974
  #      division   0.6868 1202
        outer_grid  770
  #      outer_grid  434
  ################################################################################
  #
  #  Definition of "minimal" basis
  #
  ################################################################################
  #     valence basis states
      valence      1  s   1.
  #     ion occupancy
      ion_occ      1  s   0.5
  ################################################################################
  
  
   basis_acc              1e-04
  #============================================
  # Optimization in      H for       NAO-VCC-4Z
  #============================================
  # (sp) correlation set
   hydro     1     s      1.15655525
   hydro     1     s      1.68684502
   hydro     1     s      2.46027686
   hydro     2     p      2.92145897
   hydro     2     p      4.14501835
   hydro     2     p      5.88102632
  # polarization set
   hydro     3     d      6.41446874
   hydro     3     d      7.67536483
   hydro     4     f     10.80870049
  # (sp) enhanced minimal set
   hydro     1     s      3.58833335
  
  -----------------------------------------------------------------------
  Completed first pass over input file control.in .
  -----------------------------------------------------------------------
  
  
  -----------------------------------------------------------------------
  Parsing geometry.in (first pass over file, find array dimensions only).
  The contents of geometry.in will be repeated verbatim below
  unless switched off by setting 'verbatim_writeout .false.' .
  in the first line of geometry.in .
  -----------------------------------------------------------------------
  
  #===============================================================================
  # Created using the Atomic Simulation Environment (ASE)
  
  # Sun Jun 29 07:08:13 2025
  
  #=======================================================
  atom 3.1749567999999999 0.4386692500000000 -0.2848930000000000 C
  atom 1.8177515500000001 -0.0260348900000000 -0.7976639300000000 C
  atom 0.6599427600000000 0.8097782100000001 -0.2529257900000000 C
  atom -0.6965785400000000 0.3137215200000000 -0.7341223500000000 C
  atom -1.8544695099999999 1.1590117200000001 -0.2170698700000000 C
  atom -3.0770814899999999 0.5619469700000000 -0.6462625600000000 O
  atom 3.9735975799999999 -0.1065005800000000 -0.7930867200000000 H
  atom 3.2748969899999998 0.2554273300000000 0.7898963500000000 H
  atom 3.3277454000000000 1.5073589700000001 -0.4653185400000000 H
  atom 1.7931219700000001 0.0216980700000000 -1.8933493699999999 H
  atom 1.6533919500000001 -1.0744005700000001 -0.5205189400000000 H
  atom 0.7879019600000000 1.8586694600000000 -0.5565398499999999 H
  atom 0.6701216800000001 0.7913352299999999 0.8462247000000001 H
  atom -0.7088985400000000 0.3092913000000000 -1.8345980900000001 H
  atom -0.8236281400000000 -0.7299466400000000 -0.4085575500000000 H
  atom -1.7745093000000001 2.1801826900000001 -0.6188752000000000 H
  atom -1.8207492900000000 1.1977603600000000 0.8829077300000000 H
  atom -3.8021152499999999 1.1773607800000001 -0.4590877000000000 H
  atom -4.6845105499999997 -7.8507389900000000 2.5391040399999998 C
  atom -4.9447976200000001 -6.3895239899999998 2.8815860899999999 C
  atom -4.5689247899999996 -5.4397207300000003 1.7433153400000001 C
  atom -4.7738726199999997 -3.9732622100000001 2.0937187399999999 C
  atom -4.2734860000000001 -3.0275456400000000 0.9967403700000000 C
  atom -4.3595134599999996 -1.7049052300000000 1.4432162799999999 O
  atom -4.9300196999999999 -8.4848734300000004 3.3940723899999998 H
  atom -5.2952672999999999 -8.1754948600000006 1.6906695100000000 H
  atom -3.6319166200000002 -8.0147405999999997 2.2870404899999999 H
  atom -4.3709652500000002 -6.1047659400000001 3.7718493500000001 H
  atom -6.0040426199999999 -6.2421081999999997 3.1224893699999998 H
  atom -3.5150274399999999 -5.5961320199999998 1.4721294500000000 H
  atom -5.1672109199999996 -5.6798084500000003 0.8526411400000000 H
  atom -4.2535942499999999 -3.7521138500000002 3.0373312900000000 H
  atom -5.8461641899999996 -3.7893040700000000 2.2593167599999999 H
  atom -3.2297188399999999 -3.2888903300000001 0.7496481500000000 H
  atom -4.8928751699999999 -3.1732709600000000 0.0951177300000000 H
  atom -3.9924159399999999 -1.1090525200000001 0.7498436300000000 H
  
  -----------------------------------------------------------------------
  Completed first pass over input file geometry.in .
  -----------------------------------------------------------------------
  

  Basic array size parameters:
  | Number of species                 :        3
  | Number of atoms                   :       36
  | Max. basis fn. angular momentum   :        4
  | Max. atomic/ionic basis occupied n:        2
  | Max. number of basis fn. types    :        2
  | Max. radial fns per species/type  :       15
  | Max. logarithmic grid size        :     1301
  | Max. radial integration grid size :       73
  | Max. angular integration grid size:      770
  | Max. angular grid division number :        8
  | Radial grid for Hartree potential :     1301
  | Number of spin channels           :        1

  Definition of standardized fundamental physical constants in this FHI-aims run:
  | Using the set of values used in FHI-aims up to 2024, which combines values from
  | different CODATA sets - see constants.f90.
  | Use the 'codata' keyword in control.in to change this selection.

  Memory overcommitment is allowed on your operating system.

------------------------------------------------------------
          Reading file control.in.
------------------------------------------------------------
  XC: Using hybrid-PBE0 functionals.
  Requested output level: full
  Scalar relativistic treatment of kinetic energy: on-site free-atom approximation to ZORA.
  Occupation type: Gaussian broadening, width =   0.100000E-01 eV.
  Using pulay charge density mixing.
  Pulay mixing - number of memorized iterations:   10
  Kohn-Sham electronic structure solved by the ELSI library.
  The 'LVL' version of RI (resolution of identity) technique is used.
  ** This is a localized expansion of all basis function products.
     Its intended use are Hartree-Fock and hybrid functionals.
     For RPA, MP2, GW, etc., LVL is not yet as accurate. In those cases, check carefully.
  Atomic Solver XC: Using user-defined functional for generating the minimal NAO basis functions.
  Note that only the following functionals are available: kli, pz-lda, pw-lda, vwn, vwn-gauss, pw91_gga, pbe, rpbe, revpbe, pbeint, blyp.
  Threshold for basis singularities:  0.1000E-04
  override_illconditioning: Explicitly overriding any built-in checks for an ill-conditioned overlap matrix.
** WARNING:
  ***  If you use this flag, you should really know what you are doing.
** END OF WARNING
** WARNING:
  *** DO NOT keep this flag set by default in all your control.in files.
** END OF WARNING
  Old 1D distribution for correlation code.
  Charge =  -0.000000E+00: Neutral system requested explicitly.

  Reading configuration options for species C                   .
  | Found nuclear charge :   6.0000
  | Found atomic mass :    12.010700000000000      amu
  | Found l_max for Hartree potential  :   6
  | Found cutoff potl. onset [A], width [A], scale factor :    4.00000    2.00000    1.00000
  | Threshold for basis-dependent cutoff potential is   0.000000E+00
  | Found data for basic radial integration grid :    34 points, outermost radius =    7.000 A
  | Found multiplier for basic radial grid :   2
  | Found angular grid specification: user-specified.
  | Specified grid contains     7 separate shells.
  | Check grid settings after all constraints further below.
  | Found free-atom valence shell :  2 s   2.000
  | Found free-atom valence shell :  2 p   2.000
  | No ionic wave fns used. Skipping ion_occ.
  | No ionic wave fns used. Skipping ion_occ.
  | Found basis singularity cutoff : 0.1000E-03
  | Found hydrogenic basis function :  1 s   1.596
  | Found hydrogenic basis function :  1 s   3.230
  | Found hydrogenic basis function :  1 s   6.538
  | Found hydrogenic basis function :  2 p   1.887
  | Found hydrogenic basis function :  2 p   4.558
  | Found hydrogenic basis function :  2 p  11.011
  | Found hydrogenic basis function :  3 d   5.231
  | Found hydrogenic basis function :  3 d   7.653
  | Found hydrogenic basis function :  3 d  11.196
  | Found hydrogenic basis function :  4 f  10.645
  | Found hydrogenic basis function :  4 f  10.800
  | Found hydrogenic basis function :  5 g  15.741
  | Found hydrogenic basis function :  1 s  13.753
  | Found hydrogenic basis function :  1 s  25.858
  | Found hydrogenic basis function :  2 p  10.266
 | Encountered keyword species, ending the description of species C                   .
  Species C                   : Missing cutoff potential type.
  Defaulting to exp(1/x)/(1-x)^2 type cutoff potential.
  Species C : No 'logarithmic' tag. Using default grid for free atom:
  | Default logarithmic grid data [bohr] : 0.1000E-03 0.1000E+03 0.1012E+01
  Species C                   : Using default innermost maximum threshold i_radial=  2 for radial functions.
  Species C                   : Default cutoff onset for free atom density etc. : 0.40000000E+01 AA.
  Species C                   : Basic radial grid will be enhanced according to radial_multiplier =   2, to contain    69 grid points.

  Reading configuration options for species O                   .
  | Found nuclear charge :   8.0000
  | Found atomic mass :    15.999400000000000      amu
  | Found l_max for Hartree potential  :   6
  | Found cutoff potl. onset [A], width [A], scale factor :    4.00000    2.00000    1.00000
  | Threshold for basis-dependent cutoff potential is   0.000000E+00
  | Found data for basic radial integration grid :    36 points, outermost radius =    7.000 A
  | Found multiplier for basic radial grid :   2
  | Found angular grid specification: user-specified.
  | Specified grid contains     7 separate shells.
  | Check grid settings after all constraints further below.
  | Found free-atom valence shell :  2 s   2.000
  | Found free-atom valence shell :  2 p   4.000
  | No ionic wave fns used. Skipping ion_occ.
  | No ionic wave fns used. Skipping ion_occ.
  | Found basis singularity cutoff : 0.1000E-03
  | Found hydrogenic basis function :  1 s   1.970
  | Found hydrogenic basis function :  1 s   3.007
  | Found hydrogenic basis function :  1 s   4.590
  | Found hydrogenic basis function :  2 p   2.375
  | Found hydrogenic basis function :  2 p   4.140
  | Found hydrogenic basis function :  2 p   7.214
  | Found hydrogenic basis function :  3 d   7.172
  | Found hydrogenic basis function :  3 d  10.002
  | Found hydrogenic basis function :  3 d  13.950
  | Found hydrogenic basis function :  4 f  13.016
  | Found hydrogenic basis function :  4 f  16.029
  | Found hydrogenic basis function :  5 g  21.816
  | Found hydrogenic basis function :  1 s   9.961
  | Found hydrogenic basis function :  1 s  15.554
  | Found hydrogenic basis function :  2 p   7.624
 | Encountered keyword species, ending the description of species O                   .
  Species O                   : Missing cutoff potential type.
  Defaulting to exp(1/x)/(1-x)^2 type cutoff potential.
  Species O : No 'logarithmic' tag. Using default grid for free atom:
  | Default logarithmic grid data [bohr] : 0.1000E-03 0.1000E+03 0.1012E+01
  Species O                   : Using default innermost maximum threshold i_radial=  2 for radial functions.
  Species O                   : Default cutoff onset for free atom density etc. : 0.40000000E+01 AA.
  Species O                   : Basic radial grid will be enhanced according to radial_multiplier =   2, to contain    73 grid points.

  Reading configuration options for species H                   .
  | Found nuclear charge :   1.0000
  | Found atomic mass :    1.0079400000000001      amu
  | Found l_max for Hartree potential  :   6
  | Found cutoff potl. onset [A], width [A], scale factor :    4.00000    2.00000    1.00000
  | Threshold for basis-dependent cutoff potential is   0.000000E+00
  | Found data for basic radial integration grid :    24 points, outermost radius =    7.000 A
  | Found multiplier for basic radial grid :   2
  | Found angular grid specification: user-specified.
  | Specified grid contains     7 separate shells.
  | Check grid settings after all constraints further below.
  | Found free-atom valence shell :  1 s   1.000
  | No ionic wave fns used. Skipping ion_occ.
  | Found basis singularity cutoff : 0.1000E-03
  | Found hydrogenic basis function :  1 s   1.157
  | Found hydrogenic basis function :  1 s   1.687
  | Found hydrogenic basis function :  1 s   2.460
  | Found hydrogenic basis function :  2 p   2.921
  | Found hydrogenic basis function :  2 p   4.145
  | Found hydrogenic basis function :  2 p   5.881
  | Found hydrogenic basis function :  3 d   6.414
  | Found hydrogenic basis function :  3 d   7.675
  | Found hydrogenic basis function :  4 f  10.809
  | Found hydrogenic basis function :  1 s   3.588
  Species H                   : Missing cutoff potential type.
  Defaulting to exp(1/x)/(1-x)^2 type cutoff potential.
  Species H : No 'logarithmic' tag. Using default grid for free atom:
  | Default logarithmic grid data [bohr] : 0.1000E-03 0.1000E+03 0.1012E+01
  Species H                   : Using default innermost maximum threshold i_radial=  2 for radial functions.
  Species H                   : Default cutoff onset for free atom density etc. : 0.40000000E+01 AA.
  Species H                   : Basic radial grid will be enhanced according to radial_multiplier =   2, to contain    49 grid points.

  Finished reading input file 'control.in'.

------------------------------------------------------------


------------------------------------------------------------
          Reading geometry description geometry.in.
------------------------------------------------------------
  | The smallest distance between any two atoms is         0.96924844 AA.
  | The first atom of this pair is atom number                      6 .
  | The second atom of this pair is atom number                    18 .
  Input structure read successfully.
  The structure contains       36 atoms,  and a total of        100.000 electrons.

  Input geometry:
  | No unit cell requested.
  | Atomic structure:
  |       Atom                x [A]            y [A]            z [A]
  |    1: Species C             3.17495680        0.43866925       -0.28489300
  |    2: Species C             1.81775155       -0.02603489       -0.79766393
  |    3: Species C             0.65994276        0.80977821       -0.25292579
  |    4: Species C            -0.69657854        0.31372152       -0.73412235
  |    5: Species C            -1.85446951        1.15901172       -0.21706987
  |    6: Species O            -3.07708149        0.56194697       -0.64626256
  |    7: Species H             3.97359758       -0.10650058       -0.79308672
  |    8: Species H             3.27489699        0.25542733        0.78989635
  |    9: Species H             3.32774540        1.50735897       -0.46531854
  |   10: Species H             1.79312197        0.02169807       -1.89334937
  |   11: Species H             1.65339195       -1.07440057       -0.52051894
  |   12: Species H             0.78790196        1.85866946       -0.55653985
  |   13: Species H             0.67012168        0.79133523        0.84622470
  |   14: Species H            -0.70889854        0.30929130       -1.83459809
  |   15: Species H            -0.82362814       -0.72994664       -0.40855755
  |   16: Species H            -1.77450930        2.18018269       -0.61887520
  |   17: Species H            -1.82074929        1.19776036        0.88290773
  |   18: Species H            -3.80211525        1.17736078       -0.45908770
  |   19: Species C            -4.68451055       -7.85073899        2.53910404
  |   20: Species C            -4.94479762       -6.38952399        2.88158609
  |   21: Species C            -4.56892479       -5.43972073        1.74331534
  |   22: Species C            -4.77387262       -3.97326221        2.09371874
  |   23: Species C            -4.27348600       -3.02754564        0.99674037
  |   24: Species O            -4.35951346       -1.70490523        1.44321628
  |   25: Species H            -4.93001970       -8.48487343        3.39407239
  |   26: Species H            -5.29526730       -8.17549486        1.69066951
  |   27: Species H            -3.63191662       -8.01474060        2.28704049
  |   28: Species H            -4.37096525       -6.10476594        3.77184935
  |   29: Species H            -6.00404262       -6.24210820        3.12248937
  |   30: Species H            -3.51502744       -5.59613202        1.47212945
  |   31: Species H            -5.16721092       -5.67980845        0.85264114
  |   32: Species H            -4.25359425       -3.75211385        3.03733129
  |   33: Species H            -5.84616419       -3.78930407        2.25931676
  |   34: Species H            -3.22971884       -3.28889033        0.74964815
  |   35: Species H            -4.89287517       -3.17327096        0.09511773
  |   36: Species H            -3.99241594       -1.10905252        0.74984363

  Slab Identifier: This is not a periodic structure.

  Finished reading input file 'geometry.in'.



  Consistency checks for stacksize environment parameter are next.

  | Maximum stacksize for task 0: unlimited
  | Maximum stacksize for task 1: unlimited
  | Maximum stacksize for task 2: unlimited
  | Maximum stacksize for task 3: unlimited
  | Maximum stacksize for task 4: unlimited
  | Maximum stacksize for task 5: unlimited
  | Maximum stacksize for task 6: unlimited
  | Maximum stacksize for task 7: unlimited
  | Maximum stacksize for task 8: unlimited
  | Maximum stacksize for task 9: unlimited
  | Maximum stacksize for task 10: unlimited
  | Maximum stacksize for task 11: unlimited
  | Maximum stacksize for task 12: unlimited
  | Maximum stacksize for task 13: unlimited
  | Maximum stacksize for task 14: unlimited
  | Maximum stacksize for task 15: unlimited
  | Maximum stacksize for task 16: unlimited
  | Maximum stacksize for task 17: unlimited
  | Maximum stacksize for task 18: unlimited
  | Maximum stacksize for task 19: unlimited
  | Maximum stacksize for task 20: unlimited
  | Maximum stacksize for task 21: unlimited
  | Maximum stacksize for task 22: unlimited
  | Maximum stacksize for task 23: unlimited
  | Maximum stacksize for task 24: unlimited
  | Maximum stacksize for task 25: unlimited
  | Maximum stacksize for task 26: unlimited
  | Maximum stacksize for task 27: unlimited
  | Maximum stacksize for task 28: unlimited
  | Maximum stacksize for task 29: unlimited
  | Maximum stacksize for task 30: unlimited
  | Maximum stacksize for task 31: unlimited
  | Maximum stacksize for task 32: unlimited
  | Maximum stacksize for task 33: unlimited
  | Maximum stacksize for task 34: unlimited
  | Maximum stacksize for task 35: unlimited
  | Maximum stacksize for task 36: unlimited
  | Maximum stacksize for task 37: unlimited
  | Maximum stacksize for task 38: unlimited
  | Maximum stacksize for task 39: unlimited
  | Maximum stacksize for task 40: unlimited
  | Maximum stacksize for task 41: unlimited
  | Maximum stacksize for task 42: unlimited
  | Maximum stacksize for task 43: unlimited
  | Maximum stacksize for task 44: unlimited
  | Maximum stacksize for task 45: unlimited
  | Maximum stacksize for task 46: unlimited
  | Maximum stacksize for task 47: unlimited
  | Maximum stacksize for task 48: unlimited
  | Maximum stacksize for task 49: unlimited
  | Maximum stacksize for task 50: unlimited
  | Maximum stacksize for task 51: unlimited
  | Maximum stacksize for task 52: unlimited
  | Maximum stacksize for task 53: unlimited
  | Maximum stacksize for task 54: unlimited
  | Maximum stacksize for task 55: unlimited
  | Maximum stacksize for task 56: unlimited
  | Maximum stacksize for task 57: unlimited
  | Maximum stacksize for task 58: unlimited
  | Maximum stacksize for task 59: unlimited
  | Maximum stacksize for task 60: unlimited
  | Maximum stacksize for task 61: unlimited
  | Maximum stacksize for task 62: unlimited
  | Maximum stacksize for task 63: unlimited
  | Maximum stacksize for task 64: unlimited
  | Maximum stacksize for task 65: unlimited
  | Maximum stacksize for task 66: unlimited
  | Maximum stacksize for task 67: unlimited
  | Maximum stacksize for task 68: unlimited
  | Maximum stacksize for task 69: unlimited
  | Maximum stacksize for task 70: unlimited
  | Maximum stacksize for task 71: unlimited
  | Maximum stacksize for task 72: unlimited
  | Maximum stacksize for task 73: unlimited
  | Maximum stacksize for task 74: unlimited
  | Maximum stacksize for task 75: unlimited
  | Maximum stacksize for task 76: unlimited
  | Maximum stacksize for task 77: unlimited
  | Maximum stacksize for task 78: unlimited
  | Maximum stacksize for task 79: unlimited
  | Maximum stacksize for task 80: unlimited
  | Maximum stacksize for task 81: unlimited
  | Maximum stacksize for task 82: unlimited
  | Maximum stacksize for task 83: unlimited
  | Maximum stacksize for task 84: unlimited
  | Maximum stacksize for task 85: unlimited
  | Maximum stacksize for task 86: unlimited
  | Maximum stacksize for task 87: unlimited
  | Maximum stacksize for task 88: unlimited
  | Maximum stacksize for task 89: unlimited
  | Maximum stacksize for task 90: unlimited
  | Maximum stacksize for task 91: unlimited
  | Maximum stacksize for task 92: unlimited
  | Maximum stacksize for task 93: unlimited
  | Maximum stacksize for task 94: unlimited
  | Maximum stacksize for task 95: unlimited
  | Maximum stacksize for task 96: unlimited
  | Maximum stacksize for task 97: unlimited
  | Maximum stacksize for task 98: unlimited
  | Maximum stacksize for task 99: unlimited
  | Maximum stacksize for task 100: unlimited
  | Maximum stacksize for task 101: unlimited
  | Maximum stacksize for task 102: unlimited
  | Maximum stacksize for task 103: unlimited
  | Maximum stacksize for task 104: unlimited
  | Maximum stacksize for task 105: unlimited
  | Maximum stacksize for task 106: unlimited
  | Maximum stacksize for task 107: unlimited
  | Maximum stacksize for task 108: unlimited
  | Maximum stacksize for task 109: unlimited
  | Maximum stacksize for task 110: unlimited
  | Maximum stacksize for task 111: unlimited
  | Maximum stacksize for task 112: unlimited
  | Maximum stacksize for task 113: unlimited
  | Maximum stacksize for task 114: unlimited
  | Maximum stacksize for task 115: unlimited
  | Maximum stacksize for task 116: unlimited
  | Maximum stacksize for task 117: unlimited
  | Maximum stacksize for task 118: unlimited
  | Maximum stacksize for task 119: unlimited
  | Maximum stacksize for task 120: unlimited
  | Maximum stacksize for task 121: unlimited
  | Maximum stacksize for task 122: unlimited
  | Maximum stacksize for task 123: unlimited
  | Maximum stacksize for task 124: unlimited
  | Maximum stacksize for task 125: unlimited
  | Maximum stacksize for task 126: unlimited
  | Maximum stacksize for task 127: unlimited
  | Current stacksize for task 0: unlimited
  | Current stacksize for task 1: unlimited
  | Current stacksize for task 2: unlimited
  | Current stacksize for task 3: unlimited
  | Current stacksize for task 4: unlimited
  | Current stacksize for task 5: unlimited
  | Current stacksize for task 6: unlimited
  | Current stacksize for task 7: unlimited
  | Current stacksize for task 8: unlimited
  | Current stacksize for task 9: unlimited
  | Current stacksize for task 10: unlimited
  | Current stacksize for task 11: unlimited
  | Current stacksize for task 12: unlimited
  | Current stacksize for task 13: unlimited
  | Current stacksize for task 14: unlimited
  | Current stacksize for task 15: unlimited
  | Current stacksize for task 16: unlimited
  | Current stacksize for task 17: unlimited
  | Current stacksize for task 18: unlimited
  | Current stacksize for task 19: unlimited
  | Current stacksize for task 20: unlimited
  | Current stacksize for task 21: unlimited
  | Current stacksize for task 22: unlimited
  | Current stacksize for task 23: unlimited
  | Current stacksize for task 24: unlimited
  | Current stacksize for task 25: unlimited
  | Current stacksize for task 26: unlimited
  | Current stacksize for task 27: unlimited
  | Current stacksize for task 28: unlimited
  | Current stacksize for task 29: unlimited
  | Current stacksize for task 30: unlimited
  | Current stacksize for task 31: unlimited
  | Current stacksize for task 32: unlimited
  | Current stacksize for task 33: unlimited
  | Current stacksize for task 34: unlimited
  | Current stacksize for task 35: unlimited
  | Current stacksize for task 36: unlimited
  | Current stacksize for task 37: unlimited
  | Current stacksize for task 38: unlimited
  | Current stacksize for task 39: unlimited
  | Current stacksize for task 40: unlimited
  | Current stacksize for task 41: unlimited
  | Current stacksize for task 42: unlimited
  | Current stacksize for task 43: unlimited
  | Current stacksize for task 44: unlimited
  | Current stacksize for task 45: unlimited
  | Current stacksize for task 46: unlimited
  | Current stacksize for task 47: unlimited
  | Current stacksize for task 48: unlimited
  | Current stacksize for task 49: unlimited
  | Current stacksize for task 50: unlimited
  | Current stacksize for task 51: unlimited
  | Current stacksize for task 52: unlimited
  | Current stacksize for task 53: unlimited
  | Current stacksize for task 54: unlimited
  | Current stacksize for task 55: unlimited
  | Current stacksize for task 56: unlimited
  | Current stacksize for task 57: unlimited
  | Current stacksize for task 58: unlimited
  | Current stacksize for task 59: unlimited
  | Current stacksize for task 60: unlimited
  | Current stacksize for task 61: unlimited
  | Current stacksize for task 62: unlimited
  | Current stacksize for task 63: unlimited
  | Current stacksize for task 64: unlimited
  | Current stacksize for task 65: unlimited
  | Current stacksize for task 66: unlimited
  | Current stacksize for task 67: unlimited
  | Current stacksize for task 68: unlimited
  | Current stacksize for task 69: unlimited
  | Current stacksize for task 70: unlimited
  | Current stacksize for task 71: unlimited
  | Current stacksize for task 72: unlimited
  | Current stacksize for task 73: unlimited
  | Current stacksize for task 74: unlimited
  | Current stacksize for task 75: unlimited
  | Current stacksize for task 76: unlimited
  | Current stacksize for task 77: unlimited
  | Current stacksize for task 78: unlimited
  | Current stacksize for task 79: unlimited
  | Current stacksize for task 80: unlimited
  | Current stacksize for task 81: unlimited
  | Current stacksize for task 82: unlimited
  | Current stacksize for task 83: unlimited
  | Current stacksize for task 84: unlimited
  | Current stacksize for task 85: unlimited
  | Current stacksize for task 86: unlimited
  | Current stacksize for task 87: unlimited
  | Current stacksize for task 88: unlimited
  | Current stacksize for task 89: unlimited
  | Current stacksize for task 90: unlimited
  | Current stacksize for task 91: unlimited
  | Current stacksize for task 92: unlimited
  | Current stacksize for task 93: unlimited
  | Current stacksize for task 94: unlimited
  | Current stacksize for task 95: unlimited
  | Current stacksize for task 96: unlimited
  | Current stacksize for task 97: unlimited
  | Current stacksize for task 98: unlimited
  | Current stacksize for task 99: unlimited
  | Current stacksize for task 100: unlimited
  | Current stacksize for task 101: unlimited
  | Current stacksize for task 102: unlimited
  | Current stacksize for task 103: unlimited
  | Current stacksize for task 104: unlimited
  | Current stacksize for task 105: unlimited
  | Current stacksize for task 106: unlimited
  | Current stacksize for task 107: unlimited
  | Current stacksize for task 108: unlimited
  | Current stacksize for task 109: unlimited
  | Current stacksize for task 110: unlimited
  | Current stacksize for task 111: unlimited
  | Current stacksize for task 112: unlimited
  | Current stacksize for task 113: unlimited
  | Current stacksize for task 114: unlimited
  | Current stacksize for task 115: unlimited
  | Current stacksize for task 116: unlimited
  | Current stacksize for task 117: unlimited
  | Current stacksize for task 118: unlimited
  | Current stacksize for task 119: unlimited
  | Current stacksize for task 120: unlimited
  | Current stacksize for task 121: unlimited
  | Current stacksize for task 122: unlimited
  | Current stacksize for task 123: unlimited
  | Current stacksize for task 124: unlimited
  | Current stacksize for task 125: unlimited
  | Current stacksize for task 126: unlimited
  | Current stacksize for task 127: unlimited

  Consistency checks for the contents of control.in are next.

  MPI_IN_PLACE appears to work with this MPI implementation.
  | Keeping use_mpi_in_place .true. (see manual).
  Species C: Using default value for prodbas_acc =   1.000000E-04.
  Species C: Using default value max_l_prodbas =    20.
  Species O: Using default value for prodbas_acc =   1.000000E-04.
  Species O: Using default value max_l_prodbas =    20.
  Species H: Using default value for prodbas_acc =   1.000000E-04.
  Species H: Using default value max_l_prodbas =    20.
  Target number of points in a grid batch is not set. Defaulting to  100
  Method for grid partitioning is not set. Defaulting to parallel hash+maxmin partitioning.
  Batch size limit is not set. Defaulting to    200
  By default, will store active basis functions for each batch.
  If in need of memory, prune_basis_once .false. can be used to disable this option.
  communication_type for Hartree potential was not specified.
  Defaulting to calc_hartree .
  Pulay mixer: Number of initial linear mixing iterations not set.
  Defaulting to    0 iterations.
  Work space size for distributed Hartree potential not set.
  Defaulting to   0.200000E+03 MB.
  Mixing parameter for charge density mixing has not been set.
  Using default: charge_mix_param =     0.0500.
  The mixing parameter will be adjusted in iteration number     2 of each s.c.f. cycle (i.e., each geometry step).
  Algorithm-dependent basis array size parameters:
  | n_max_pulay                         :       10
  Maximum number of self-consistency iterations not provided.
  Presetting  1000 iterations.
  Presetting      1001 iterations before the initial mixing cycle
  is restarted anyway using the sc_init_iter criterion / keyword.
  Presetting a factor      1.000 between actual scf density residual
  and density convergence criterion sc_accuracy_rho below which sc_init_iter
  takes no effect.
 * No s.c.f. convergence criteria (sc_accuracy_*) were provided in control.in.
 * The run will proceed with a reasonable default guess, but please check whether.
 * the s.c.f. cycles seem to take too much or too little time.
  Calculation of forces was not defined in control.in. No forces will be calculated.
  Geometry relaxation not requested: no relaxation will be performed.
 * Notice: The s.c.f. convergence criterion sc_accuracy_rho was not provided.
 * We used to stop in this case, and ask the user to provide reasonable
 * scf convergence criteria. However, this led some users to employ criteria
 * that led to extremely long run times, e.g., for simple relaxation.
 * We now preset a default value for sc_accuracy_rho if it is not set.
 * You may still wish to check if this setting is too tight or too loose for your needs.
 * Based on n_atoms and forces and force-correction status, FHI-aims chose sc_accuracy_rho =  0.195959E-04 .
  No accuracy limit for integral partition fn. given. Defaulting to  0.1000E-14.
  No threshold value for u(r) in integrations given. Defaulting to  0.1000E-05.
  No accuracy for occupation numbers given. Defaulting to  0.1000E-12.
  No threshold value for occupation numbers given. Defaulting to  0.0000E+00.
  No accuracy for fermi level given. Defaulting to  0.1000E-19.
  Maximum # of iterations to find E_F not set. Defaulting to  200.
  Will not use alltoall communication since running on < 1024 CPUs.
  partition_type (choice of integration weights) for integrals was not specified.
  | Using a version of the partition function of Stratmann and coworkers ('stratmann_sparse').
  | At each grid point, the set of atoms used to build the partition table is smoothly restricted to
  | only those atoms whose free-atom density would be non-zero at that grid point.
  Partitioning for Hartree potential was not defined. Using partition_type for integrals.
  | Adjusted default value of keyword multip_moments_threshold to:       0.10000000E-11
  | This value may affect high angular momentum components of the Hartree potential in periodic systems.
  Spin handling was not defined in control.in. Defaulting to unpolarized case.
  Threshold for auxiliary basis singularities not set.
  Default threshold for auxiliary basis singularities:  0.1000E-04
  No q(lm)/r^(l+1) cutoff set for long-range Hartree potential.
  | Using default value of  0.100000E-09 .
  | Verify using the multipole_threshold keyword.
  Defaulting to new monopole extrapolation.
  Density update method: density matrix based density update selected.
  Scalapack and density-matrix based density update required:
  Switching to packed matrix format "index" by default.
  Coulomb operator: Defaulting to screening threshold for four-center integrals:   0.100000E-06
  Coulomb operator: Defaulting to screening threshold for Coulomb matrix:   0.100000E-09
  Fock matrix calculation: Setting the screening threshold for overlap matrix to coul_mat_threshold:   0.100000E-09
  Coulomb operator: Defaulting to logarithmic spherical Bessel transform integrals (use_logsbt .true.).
  Charge integration errors on the 3D integration grid will be compensated
  by explicit normalization and distribution of residual charges.
  Use the "compensate_multipole_errors" flag to change this behaviour.
  LVL not implemented with density matrix yet
  -> switching to transformed overlap
  LVL probably works better with logsbt
  Default to 1D ("use_logsbt") integrations for auxiliary 2-center integrals.
  Default onset of logarithmic r-grid for SBT is -38.000000000000
  Default onset of logarithmic k-grid for SBT is -25.000000000000
  Default range of logarithmic r- and k-grid for SBT is  45.000000000000
  Default number of logarithmic r- and k-grid for SBT is   4096
  Found no potential conflicts with setting 'use_local_index' for this calculation.
  Flag 'use_local_index' has not been set.
  Testing whether we classify this calculation as large-scale ...
  The calculation contains less than 100 atoms. This is most likely not a large-scale calculation.
  Not setting 'use_local_index'.

  Consistency checks for the contents of geometry.in are next.

  Number of empty states per atom not set in control.in - providing a guess from actual geometry.
  | Total number of empty states used during s.c.f. cycle:       72
  If you use a very high smearing, use empty_states (per atom!) in control.in to increase this value.

  Structure-dependent array size parameters: 
  | Maximum number of distinct radial functions  :       47
  | Maximum number of basis functions            :     1464
  | Number of Kohn-Sham states (occupied + empty):      122
------------------------------------------------------------
  After read_input_data [GB]:    231.63

  Performing system and environment tests:
  | Environment variable OMP_NUM_THREADS correctly set to 1.
  | Checking for ScaLAPACK...
  | Testing pdtran()...
  | All pdtran() tests passed.
  After prepare_system [GB]:    231.51

------------------------------------------------------------
          Preparing all fixed parts of the calculation.
------------------------------------------------------------
  Determining machine precision:
     2.2250738585072014E-308
  Setting up grids for atomic and cluster calculations.

  Creating wave function, potential, and density for free atoms.
  Runtime choices for atomic solver:
  | atomic solver xc        : PBE
  | compute density gradient: 1
  | compute kinetic density : F

  Species: C

  List of occupied orbitals and eigenvalues:
    n    l              occ      energy [Ha]    energy [eV]
    1    0           2.0000       -10.049212      -273.4530
    2    0           2.0000        -0.504761       -13.7352
    2    1           2.0000        -0.193631        -5.2690


  Species: O

  List of occupied orbitals and eigenvalues:
    n    l              occ      energy [Ha]    energy [eV]
    1    0           2.0000       -18.927378      -515.0401
    2    0           2.0000        -0.880539       -23.9607
    2    1           4.0000        -0.331811        -9.0290


  Species: H

  List of occupied orbitals and eigenvalues:
    n    l              occ      energy [Ha]    energy [eV]
    1    0           1.0000        -0.238386        -6.4868


  Adding cutoff potential to free-atom effective potential.
  Creating fixed part of basis set: Ionic, confined, hydrogenic.

  C                    hydrogenic:

  List of hydrogenic basis orbitals: 
    n    l      effective z      eigenvalue [eV]  inner max. [A]     outer max. [A]     outer radius [A]   
    1    0         1.595529       -34.6362           0.332673           0.332673           5.019603
    1    0         3.229750      -141.9249           0.163712           0.163712           2.931316
    1    0         6.537823      -581.5499           0.080565           0.080565           1.478240
    2    1         1.887003       -12.1063           1.115918           1.115918           5.401630
    2    1         4.558258       -70.6738           0.462772           0.462772           4.607917
    2    1        11.010960      -412.3928           0.191912           0.191912           2.006671
    3    2         5.230724       -41.3620           0.906516           0.906516           5.207114
    3    2         7.652568       -88.5304           0.620567           0.620567           4.607917
    3    2        11.195735      -189.4887           0.424817           0.424817           3.232486
    4    3        10.645156       -96.3618           0.792453           0.792453           4.780049
    4    3        10.800406       -99.1930           0.782825           0.782825           4.721969
    5    4        15.741379      -134.8547           0.842403           0.842403           4.496620
    1    0        13.753138     -2573.5004           0.038689           0.038689           0.718621
    1    0        25.857615     -9096.9866           0.020488           0.020488           0.389976
    2    1        10.266135      -358.4880           0.206518           0.206518           2.133155


  O                    hydrogenic:

  List of hydrogenic basis orbitals: 
    n    l      effective z      eigenvalue [eV]  inner max. [A]     outer max. [A]     outer radius [A]   
    1    0         1.970254       -52.8160           0.268494           0.268494           4.634338
    1    0         3.007156      -123.0361           0.175029           0.175029           3.133949
    1    0         4.589756      -286.6156           0.115504           0.115504           2.093567
    2    1         2.375477       -19.1936           0.889693           0.889693           5.366593
    2    1         4.139586       -58.2874           0.513244           0.513244           4.866590
    2    1         7.213781      -177.0054           0.292482           0.292482           3.021094
    3    2         7.171992       -77.7603           0.663465           0.663465           4.807458
    3    2        10.002497      -151.2499           0.476945           0.476945           3.629133
    3    2        13.950091      -294.1929           0.342862           0.342862           2.608875
    4    3        13.016128      -144.0669           0.647440           0.647440           4.051222
    4    3        16.028979      -218.4803           0.525948           0.525948           3.331488
    5    4        21.816083      -259.0205           0.609051           0.609051           3.291008
    1    0         9.961175     -1350.0250           0.052821           0.052821           0.981101
    1    0        15.554179     -3291.6589           0.034015           0.034015           0.639573
    2    1         7.624290      -197.7240           0.278524           0.278524           2.841960


  H                    hydrogenic:

  List of hydrogenic basis orbitals: 
    n    l      effective z      eigenvalue [eV]  inner max. [A]     outer max. [A]     outer radius [A]   
    1    0         1.156555       -18.1992           0.460320           0.460320           5.243229
    1    0         1.686845       -38.7143           0.315118           0.315118           4.932336
    1    0         2.460277       -82.3547           0.215718           0.215718           3.815562
    2    1         2.921459       -29.0309           0.723605           0.723605           5.243229
    2    1         4.145018       -58.4405           0.507614           0.507614           4.813203
    2    1         5.881026      -117.6432           0.360475           0.360475           3.678162
    3    2         6.414469       -62.2013           0.741515           0.741515           4.993004
    3    2         7.675365       -89.0587           0.617279           0.617279           4.583499
    4    3        10.808700       -99.3454           0.778676           0.778676           4.696947
    1    0         3.588333      -175.1887           0.147673           0.147673           2.644120

  Creating atomic-like basis functions for current effective potential.

  Species C                   :

  List of atomic basis orbitals and eigenvalues:
    n    l      energy [Ha]    energy [eV]    outer radius [A]
    1    0       -10.049212      -273.4530       1.934409
    2    0        -0.504761       -13.7352       5.271162
    2    1        -0.193631        -5.2690       5.401630


  Species O                   :

  List of atomic basis orbitals and eigenvalues:
    n    l      energy [Ha]    energy [eV]    outer radius [A]
    1    0       -18.927378      -515.0401       1.415765
    2    0        -0.880539       -23.9607       5.048385
    2    1        -0.331811        -9.0290       5.301386


  Species H                   :

  List of atomic basis orbitals and eigenvalues:
    n    l      energy [Ha]    energy [eV]    outer radius [A]
    1    0        -0.238386        -6.4868       5.373006

  Assembling full basis from fixed parts.
  | Species C :   atomic orbital   1 s accepted.
  | Species C :   atomic orbital   2 s accepted.
  | Species C :    hydro orbital   1 s accepted.
  | Species C :    hydro orbital   1 s accepted.
  | Species C :    hydro orbital   1 s accepted.
  | Species C :    hydro orbital   1 s accepted.
  | Species C :    hydro orbital   1 s accepted.
  | Species C :   atomic orbital   2 p accepted.
  | Species C :    hydro orbital   2 p accepted.
  | Species C :    hydro orbital   2 p accepted.
  | Species C :    hydro orbital   2 p accepted.
  | Species C :    hydro orbital   2 p accepted.
  | Species C :    hydro orbital   3 d accepted.
  | Species C :    hydro orbital   3 d accepted.
  | Species C :    hydro orbital   3 d accepted.
  | Species C :    hydro orbital   4 f accepted.
  | Species C :    hydro orbital   4 f accepted.
  | Species C :    hydro orbital   5 g accepted.
  | Species O :   atomic orbital   1 s accepted.
  | Species O :   atomic orbital   2 s accepted.
  | Species O :    hydro orbital   1 s accepted.
  | Species O :    hydro orbital   1 s accepted.
  | Species O :    hydro orbital   1 s accepted.
  | Species O :    hydro orbital   1 s accepted.
  | Species O :    hydro orbital   1 s accepted.
  | Species O :   atomic orbital   2 p accepted.
  | Species O :    hydro orbital   2 p accepted.
  | Species O :    hydro orbital   2 p accepted.
  | Species O :    hydro orbital   2 p accepted.
  | Species O :    hydro orbital   2 p accepted.
  | Species O :    hydro orbital   3 d accepted.
  | Species O :    hydro orbital   3 d accepted.
  | Species O :    hydro orbital   3 d accepted.
  | Species O :    hydro orbital   4 f accepted.
  | Species O :    hydro orbital   4 f accepted.
  | Species O :    hydro orbital   5 g accepted.
  | Species H :   atomic orbital   1 s accepted.
  | Species H :    hydro orbital   1 s accepted.
  | Species H :    hydro orbital   1 s accepted.
  | Species H :    hydro orbital   1 s accepted.
  | Species H :    hydro orbital   1 s accepted.
  | Species H :    hydro orbital   2 p accepted.
  | Species H :    hydro orbital   2 p accepted.
  | Species H :    hydro orbital   2 p accepted.
  | Species H :    hydro orbital   3 d accepted.
  | Species H :    hydro orbital   3 d accepted.
  | Species H :    hydro orbital   4 f accepted.

  Basis size parameters after reduction:
  | Total number of radial functions:       47
  | Total number of basis functions :     1464

  Per-task memory consumption for arrays in subroutine allocate_ext:
  |          15.692844MB.
  Testing on-site integration grid accuracy.
  |  Species  Function  <phi|h_atom|phi> (log., in eV)  <phi|h_atom|phi> (rad., in eV)
           1        1               -273.4529725981               -273.4529710451
           1        2                -13.7352530191                -13.7352524550
           1        3                 86.4394709515                 86.4400844526
           1        4                226.8637043933                226.8644757820
           1        5                413.6234960059                413.6377457562
           1        6               4315.2086839682               4315.2543525825 ***
           1        7              17091.6816470870              17095.5173250525 ***
           1        8                 -5.2694407727                 -5.2694065285
           1        9                 11.0284985628                 11.0286830824
           1       10                 51.1937094682                 51.1938657706
           1       11                299.3702682341                299.3702723975
           1       12                628.5013269188                628.5013423901
           1       13                 20.6149529623                 20.6149530088
           1       14                 73.2317106982                 73.2317104202
           1       15                206.6543061703                206.6543044822
           1       16                 70.1741891322                 70.1741891250
           1       17                112.1054541854                112.1054537982
           1       18                111.6980878532                111.6980878396
           2       19               -515.0401491148               -515.0401445497
           2       20                -23.9606901999                -23.9606901323
           2       21                178.7116587766                178.7136766537
           2       22                 58.6290136804                 58.6290666143
           2       23                818.4995621689                818.5079355158
           2       24               1947.4354358587               1947.5093910757 ***
           2       25               7898.4478983389               7898.4210438669
           2       26                 -9.0290718243                 -9.0290720379
           2       27                 16.7252183851                 16.7252145026
           2       28                 94.8948869125                 94.8948815049
           2       29                683.6565470398                683.6567983254
           2       30                244.7594522105                244.7597028931
           2       31                 40.9093049752                 40.9093050128
           2       32                127.6731770724                127.6731772647
           2       33                329.2322401211                329.2322398246
           2       34                107.0178687545                107.0178687749
           2       35                229.6051168668                229.6051168151
           2       36                217.0518523481                217.0518522592
           3       37                 -6.4870767962                 -6.4871688290
           3       38                  7.8404860092                  7.8387943725
           3       39                 56.2681325816                 56.2648281948
           3       40                176.7421713869                176.7378856741
           3       41                456.0825831622                456.0852998323
           3       42                 16.2524740029                 16.2524727596
           3       43                 68.0575558880                 68.0575485557
           3       44                187.8519508374                187.8519314811
           3       45                 50.0154550832                 50.0154550689
           3       46                114.2834582300                114.2834581327
           3       47                 88.1519555420                 88.1519554887
 * Note: Onsite integrals marked "***" above are less accurate than
 * onsite_accuracy_threshold =    0.03000 eV. Usually, this is harmless.
 * When in doubt, tighten the "radial" and/or "radial_multiplier" flags to check.

  Task       0:*** pseudo_inverse, for evaluate_coeff_d: error of  2.97E-13; eps:  1.00E-15
  Preparing densities etc. for the partition functions (integrals / Hartree potential).

  Preparations completed.
  max(cpu_time)          :      0.319 s.
  Wall clock time (cpu1) :      0.490 s.
------------------------------------------------------------
  After prepare_scf [GB]:    226.01

  Initializing index lists of integration centers etc. from given atomic structure:
  | Consuming          0 KiB for k_phase_exx.
  | Number of centers in hartree potential         :        36
  | Number of centers in hartree multipole         :        36
  | Number of centers in electron density summation:        36
  | Number of centers in basis integrals           :        36
  | Number of centers in integrals                 :        36
  | Number of centers in hamiltonian               :        36
  After initialize_bc_dependent_lists [GB]:    226.01

  Initializing index lists of integration centers etc. from given atomic structure:
  | Consuming          0 KiB for k_phase_exx.
  | Number of centers in hartree potential         :        36
  | Number of centers in hartree multipole         :        36
  | Number of centers in electron density summation:        36
  | Number of centers in basis integrals           :        36
  | Number of centers in integrals                 :        36
  | Number of centers in hamiltonian               :        36

------------------------------------------------------------
          Begin self-consistency loop: Initialization.

          Date     :  20250629, Time     :  070818.926
------------------------------------------------------------
  Available memory per node after initialize_hartree_non_periodic_ewald [GB]:    226.01
  Available memory per node after initialize_recip_hartree_potential [GB]:    226.01
  * Using 128 tasks for Scalapack Eigenvalue solver.
  Detailed listing of tasks and assigned k-points:
  (for non-periodic systems, the "k-point" denotes an internal label only)
   Task     0 k-point     1 on nid002128
   Task     1 k-point     1 on nid002128
   Task     2 k-point     1 on nid002128
   Task     3 k-point     1 on nid002128
   Task     4 k-point     1 on nid002128
   Task     5 k-point     1 on nid002128
   Task     6 k-point     1 on nid002128
   Task     7 k-point     1 on nid002128
   Task     8 k-point     1 on nid002128
   Task     9 k-point     1 on nid002128
   Task    10 k-point     1 on nid002128
   Task    11 k-point     1 on nid002128
   Task    12 k-point     1 on nid002128
   Task    13 k-point     1 on nid002128
   Task    14 k-point     1 on nid002128
   Task    15 k-point     1 on nid002128
   Task    16 k-point     1 on nid002128
   Task    17 k-point     1 on nid002128
   Task    18 k-point     1 on nid002128
   Task    19 k-point     1 on nid002128
   Task    20 k-point     1 on nid002128
   Task    21 k-point     1 on nid002128
   Task    22 k-point     1 on nid002128
   Task    23 k-point     1 on nid002128
   Task    24 k-point     1 on nid002128
   Task    25 k-point     1 on nid002128
   Task    26 k-point     1 on nid002128
   Task    27 k-point     1 on nid002128
   Task    28 k-point     1 on nid002128
   Task    29 k-point     1 on nid002128
   Task    30 k-point     1 on nid002128
   Task    31 k-point     1 on nid002128
   Task    32 k-point     1 on nid002128
   Task    33 k-point     1 on nid002128
   Task    34 k-point     1 on nid002128
   Task    35 k-point     1 on nid002128
   Task    36 k-point     1 on nid002128
   Task    37 k-point     1 on nid002128
   Task    38 k-point     1 on nid002128
   Task    39 k-point     1 on nid002128
   Task    40 k-point     1 on nid002128
   Task    41 k-point     1 on nid002128
   Task    42 k-point     1 on nid002128
   Task    43 k-point     1 on nid002128
   Task    44 k-point     1 on nid002128
   Task    45 k-point     1 on nid002128
   Task    46 k-point     1 on nid002128
   Task    47 k-point     1 on nid002128
   Task    48 k-point     1 on nid002128
   Task    49 k-point     1 on nid002128
   Task    50 k-point     1 on nid002128
   Task    51 k-point     1 on nid002128
   Task    52 k-point     1 on nid002128
   Task    53 k-point     1 on nid002128
   Task    54 k-point     1 on nid002128
   Task    55 k-point     1 on nid002128
   Task    56 k-point     1 on nid002128
   Task    57 k-point     1 on nid002128
   Task    58 k-point     1 on nid002128
   Task    59 k-point     1 on nid002128
   Task    60 k-point     1 on nid002128
   Task    61 k-point     1 on nid002128
   Task    62 k-point     1 on nid002128
   Task    63 k-point     1 on nid002128
   Task    64 k-point     1 on nid002128
   Task    65 k-point     1 on nid002128
   Task    66 k-point     1 on nid002128
   Task    67 k-point     1 on nid002128
   Task    68 k-point     1 on nid002128
   Task    69 k-point     1 on nid002128
   Task    70 k-point     1 on nid002128
   Task    71 k-point     1 on nid002128
   Task    72 k-point     1 on nid002128
   Task    73 k-point     1 on nid002128
   Task    74 k-point     1 on nid002128
   Task    75 k-point     1 on nid002128
   Task    76 k-point     1 on nid002128
   Task    77 k-point     1 on nid002128
   Task    78 k-point     1 on nid002128
   Task    79 k-point     1 on nid002128
   Task    80 k-point     1 on nid002128
   Task    81 k-point     1 on nid002128
   Task    82 k-point     1 on nid002128
   Task    83 k-point     1 on nid002128
   Task    84 k-point     1 on nid002128
   Task    85 k-point     1 on nid002128
   Task    86 k-point     1 on nid002128
   Task    87 k-point     1 on nid002128
   Task    88 k-point     1 on nid002128
   Task    89 k-point     1 on nid002128
   Task    90 k-point     1 on nid002128
   Task    91 k-point     1 on nid002128
   Task    92 k-point     1 on nid002128
   Task    93 k-point     1 on nid002128
   Task    94 k-point     1 on nid002128
   Task    95 k-point     1 on nid002128
   Task    96 k-point     1 on nid002128
   Task    97 k-point     1 on nid002128
   Task    98 k-point     1 on nid002128
   Task    99 k-point     1 on nid002128
   Task   100 k-point     1 on nid002128
   Task   101 k-point     1 on nid002128
   Task   102 k-point     1 on nid002128
   Task   103 k-point     1 on nid002128
   Task   104 k-point     1 on nid002128
   Task   105 k-point     1 on nid002128
   Task   106 k-point     1 on nid002128
   Task   107 k-point     1 on nid002128
   Task   108 k-point     1 on nid002128
   Task   109 k-point     1 on nid002128
   Task   110 k-point     1 on nid002128
   Task   111 k-point     1 on nid002128
   Task   112 k-point     1 on nid002128
   Task   113 k-point     1 on nid002128
   Task   114 k-point     1 on nid002128
   Task   115 k-point     1 on nid002128
   Task   116 k-point     1 on nid002128
   Task   117 k-point     1 on nid002128
   Task   118 k-point     1 on nid002128
   Task   119 k-point     1 on nid002128
   Task   120 k-point     1 on nid002128
   Task   121 k-point     1 on nid002128
   Task   122 k-point     1 on nid002128
   Task   123 k-point     1 on nid002128
   Task   124 k-point     1 on nid002128
   Task   125 k-point     1 on nid002128
   Task   126 k-point     1 on nid002128
   Task   127 k-point     1 on nid002128
  Tasks:   128 split into     16 X      8 BLACS grid
  Calculating block size based on n_basis =         1464  max_nprow =           16  max_npcol =            8
  ScaLAPACK block size set to:           16
  Allocating        0.141 MB for ovlp
  Allocating        0.141 MB for ham
  Allocating        0.141 MB for eigenvec
  Required Scalapack workspace - INTEGER:            1  REAL:             1
  Available memory per node after initialize_scalapack [GB]:    226.00
  Available memory per node after aims_elsi_init_scf [GB]:    226.00
  Available memory per node after initialize_fixed_grids [GB]:    226.00
  Partitioning the integration grid into batches with parallel hashing+maxmin method.
  | Number of batches:     8490
  | Maximal batch size:     200
  | Minimal batch size:       2
  | Average batch size:     107.677
  | Standard deviation of batch sizes:      32.286

  Integration load balanced across   128 MPI tasks.
  Work distribution over tasks is as follows:
  Task     0 has       7083 integration points.
  Task     1 has       7155 integration points.
  Task     2 has       7151 integration points.
  Task     3 has       7179 integration points.
  Task     4 has       7115 integration points.
  Task     5 has       7108 integration points.
  Task     6 has       7142 integration points.
  Task     7 has       7095 integration points.
  Task     8 has       7111 integration points.
  Task     9 has       7149 integration points.
  Task    10 has       7110 integration points.
  Task    11 has       7173 integration points.
  Task    12 has       7188 integration points.
  Task    13 has       7209 integration points.
  Task    14 has       7137 integration points.
  Task    15 has       7212 integration points.
  Task    16 has       7139 integration points.
  Task    17 has       7114 integration points.
  Task    18 has       7142 integration points.
  Task    19 has       7118 integration points.
  Task    20 has       7097 integration points.
  Task    21 has       7192 integration points.
  Task    22 has       7098 integration points.
  Task    23 has       7212 integration points.
  Task    24 has       7116 integration points.
  Task    25 has       7209 integration points.
  Task    26 has       7144 integration points.
  Task    27 has       7090 integration points.
  Task    28 has       7097 integration points.
  Task    29 has       7183 integration points.
  Task    30 has       7149 integration points.
  Task    31 has       7184 integration points.
  Task    32 has       7190 integration points.
  Task    33 has       7211 integration points.
  Task    34 has       7170 integration points.
  Task    35 has       7146 integration points.
  Task    36 has       7128 integration points.
  Task    37 has       7112 integration points.
  Task    38 has       7112 integration points.
  Task    39 has       7187 integration points.
  Task    40 has       7187 integration points.
  Task    41 has       7126 integration points.
  Task    42 has       7136 integration points.
  Task    43 has       7141 integration points.
  Task    44 has       7096 integration points.
  Task    45 has       7139 integration points.
  Task    46 has       7184 integration points.
  Task    47 has       7079 integration points.
  Task    48 has       7146 integration points.
  Task    49 has       7188 integration points.
  Task    50 has       7121 integration points.
  Task    51 has       7161 integration points.
  Task    52 has       7117 integration points.
  Task    53 has       7142 integration points.
  Task    54 has       7112 integration points.
  Task    55 has       7182 integration points.
  Task    56 has       7189 integration points.
  Task    57 has       7144 integration points.
  Task    58 has       7184 integration points.
  Task    59 has       7119 integration points.
  Task    60 has       7133 integration points.
  Task    61 has       7152 integration points.
  Task    62 has       7207 integration points.
  Task    63 has       7108 integration points.
  Task    64 has       7165 integration points.
  Task    65 has       7151 integration points.
  Task    66 has       7165 integration points.
  Task    67 has       7148 integration points.
  Task    68 has       7100 integration points.
  Task    69 has       7112 integration points.
  Task    70 has       7168 integration points.
  Task    71 has       7110 integration points.
  Task    72 has       7108 integration points.
  Task    73 has       7148 integration points.
  Task    74 has       7187 integration points.
  Task    75 has       7143 integration points.
  Task    76 has       7186 integration points.
  Task    77 has       7103 integration points.
  Task    78 has       7144 integration points.
  Task    79 has       7180 integration points.
  Task    80 has       7115 integration points.
  Task    81 has       7141 integration points.
  Task    82 has       7143 integration points.
  Task    83 has       7149 integration points.
  Task    84 has       7113 integration points.
  Task    85 has       7118 integration points.
  Task    86 has       7180 integration points.
  Task    87 has       7146 integration points.
  Task    88 has       7151 integration points.
  Task    89 has       7147 integration points.
  Task    90 has       7099 integration points.
  Task    91 has       7111 integration points.
  Task    92 has       7128 integration points.
  Task    93 has       7110 integration points.
  Task    94 has       7164 integration points.
  Task    95 has       7117 integration points.
  Task    96 has       7149 integration points.
  Task    97 has       7150 integration points.
  Task    98 has       7145 integration points.
  Task    99 has       7096 integration points.
  Task   100 has       7085 integration points.
  Task   101 has       7214 integration points.
  Task   102 has       7205 integration points.
  Task   103 has       7155 integration points.
  Task   104 has       7113 integration points.
  Task   105 has       7098 integration points.
[...]

  Self-consistency convergence accuracy:
  | Change of charge density      :  0.6633E-05
  | Change of unmixed KS density  :  0.6429E-05
  | Change of sum of eigenvalues  :  0.1953E-02 eV
  | Change of total energy        : -0.2057E-04 eV

  Writing Kohn-Sham eigenvalues.

  State    Occupation    Eigenvalue [Ha]    Eigenvalue [eV]
      1       2.00000         -19.249256         -523.79890
      2       2.00000         -19.219220         -522.98158
      3       2.00000         -10.285122         -279.87242
      4       2.00000         -10.264451         -279.30993
      5       2.00000         -10.231828         -278.42220
      6       2.00000         -10.231528         -278.41403
      7       2.00000         -10.230725         -278.39219
      8       2.00000         -10.222527         -278.16912
      9       2.00000         -10.220992         -278.12735
     10       2.00000         -10.220957         -278.12639
     11       2.00000         -10.217202         -278.02421
     12       2.00000         -10.214788         -277.95853
     13       2.00000          -1.061299          -28.87942
     14       2.00000          -1.037136          -28.22190
     15       2.00000          -0.833405          -22.67811
     16       2.00000          -0.821499          -22.35411
     17       2.00000          -0.776434          -21.12786
     18       2.00000          -0.762935          -20.76052
     19       2.00000          -0.697702          -18.98543
     20       2.00000          -0.682565          -18.57355
     21       2.00000          -0.620685          -16.88971
     22       2.00000          -0.607134          -16.52096
     23       2.00000          -0.599947          -16.32539
     24       2.00000          -0.587823          -15.99547
     25       2.00000          -0.535983          -14.58484
     26       2.00000          -0.515105          -14.01671
     27       2.00000          -0.505968          -13.76808
     28       2.00000          -0.493540          -13.42990
     29       2.00000          -0.470276          -12.79686
     30       2.00000          -0.457494          -12.44905
     31       2.00000          -0.447476          -12.17645
     32       2.00000          -0.434706          -11.82894
     33       2.00000          -0.433635          -11.79980
     34       2.00000          -0.423405          -11.52145
     35       2.00000          -0.415301          -11.30092
     36       2.00000          -0.402898          -10.96342
     37       2.00000          -0.397081          -10.80513
     38       2.00000          -0.383866          -10.44554
     39       2.00000          -0.363526           -9.89204
     40       2.00000          -0.359446           -9.78102
     41       2.00000          -0.350224           -9.53009
     42       2.00000          -0.348612           -9.48620
     43       2.00000          -0.344504           -9.37444
     44       2.00000          -0.338486           -9.21068
     45       2.00000          -0.338008           -9.19766
     46       2.00000          -0.334873           -9.11237
     47       2.00000          -0.328134           -8.92899
     48       2.00000          -0.317422           -8.63750
     49       2.00000          -0.301118           -8.19385
     50       2.00000          -0.273017           -7.42916
     51       0.00000           0.008506            0.23147
     52       0.00000           0.024017            0.65354
     53       0.00000           0.028641            0.77936
     54       0.00000           0.033769            0.91889
     55       0.00000           0.037734            1.02681
     56       0.00000           0.041391            1.12630
     57       0.00000           0.045918            1.24948
     58       0.00000           0.048163            1.31058
     59       0.00000           0.054232            1.47573
     60       0.00000           0.065616            1.78550
     61       0.00000           0.072827            1.98173
     62       0.00000           0.080744            2.19716
     63       0.00000           0.082879            2.25526
     64       0.00000           0.088227            2.40078
     65       0.00000           0.094694            2.57676
     66       0.00000           0.101893            2.77264
     67       0.00000           0.106480            2.89748
     68       0.00000           0.108279            2.94641
     69       0.00000           0.109845            2.98903
     70       0.00000           0.117913            3.20857
     71       0.00000           0.120308            3.27375
     72       0.00000           0.126729            3.44846
     73       0.00000           0.128522            3.49727
     74       0.00000           0.134207            3.65196
     75       0.00000           0.138089            3.75760
     76       0.00000           0.143040            3.89231
     77       0.00000           0.161733            4.40097
     78       0.00000           0.167550            4.55928
     79       0.00000           0.172323            4.68916
     80       0.00000           0.186436            5.07318
     81       0.00000           0.188220            5.12172
     82       0.00000           0.190907            5.19484
     83       0.00000           0.195054            5.30768
     84       0.00000           0.199077            5.41715
     85       0.00000           0.205186            5.58341
     86       0.00000           0.208663            5.67800
     87       0.00000           0.217527            5.91921
     88       0.00000           0.221915            6.03863
     89       0.00000           0.226222            6.15582
     90       0.00000           0.231201            6.29129
     91       0.00000           0.237396            6.45987
     92       0.00000           0.237738            6.46918
     93       0.00000           0.242813            6.60728
     94       0.00000           0.245791            6.68831
     95       0.00000           0.252702            6.87638
     96       0.00000           0.256808            6.98811
     97       0.00000           0.263452            7.16889
     98       0.00000           0.263663            7.17464
     99       0.00000           0.271868            7.39790
    100       0.00000           0.276409            7.52147
    101       0.00000           0.282157            7.67787
    102       0.00000           0.283304            7.70910
    103       0.00000           0.285554            7.77032
    104       0.00000           0.292062            7.94740
    105       0.00000           0.293770            7.99389
    106       0.00000           0.298876            8.13283
    107       0.00000           0.299905            8.16083
    108       0.00000           0.310415            8.44682
    109       0.00000           0.314729            8.56422
    110       0.00000           0.320777            8.72878
    111       0.00000           0.323734            8.80925
    112       0.00000           0.329540            8.96725
    113       0.00000           0.332661            9.05217
    114       0.00000           0.336257            9.15002
    115       0.00000           0.340821            9.27422
    116       0.00000           0.345838            9.41073
    117       0.00000           0.347968            9.46870
    118       0.00000           0.356159            9.69157
    119       0.00000           0.357085            9.71679
    120       0.00000           0.364600            9.92128
    121       0.00000           0.370172           10.07290
    122       0.00000           0.373400           10.16072

  Highest occupied state (VBM) at     -7.42916454 eV
  | Occupation number:      2.00000000

  Lowest unoccupied state (CBM) at     0.23146738 eV
  | Occupation number:      0.00000000

  Overall HOMO-LUMO gap:      7.66063192 eV.

  | Chemical Potential                          :    -3.59884858 eV
  | Note that, for insulating systems, the printed 'chemical potential' value is not uniquely defined.
  | It can be anywhere in the energy gap, as long as it correctly separates occupied and unoccupied states.
  | In systems with a gap, the physically relevant chemical potential is the VBM or HOMO.

  Self-consistency cycle converged.


------------------------------------------------------------
  End self-consistency iteration #    16       :  max(cpu_time)    wall_clock(cpu1)
  | Time for this iteration                     :        7.407 s           7.410 s
  | Charge density update                       :        0.000 s           0.000 s
  | Density mixing                              :        0.003 s           0.003 s
  | Hartree multipole update                    :        0.006 s           0.006 s
  | Hartree multipole summation                 :        0.079 s           0.079 s
  | Integration                                 :        0.484 s           0.484 s
  | Fock matrix evaluation                      :        6.676 s           6.677 s
  | Solution of K.-S. eqns.                     :        0.154 s           0.154 s
  | Total energy evaluation                     :        0.000 s           0.000 s

  Partial memory accounting:
  | Current value for overall tracked memory usage:
  |   Minimum:       96.126 MB (on task 205)
  |   Maximum:      187.827 MB (on task 148)
  |   Average:      148.635 MB
  | Peak value for overall tracked memory usage:
  |   Minimum:      112.939 MB (on task 237 after allocating gradient_basis_wave)
  |   Maximum:      226.382 MB (on task 148 after allocating ovlp3fn2%n)
  |   Average:      172.369 MB
  | Largest tracked array allocation so far:
  |   Minimum:       80.580 MB (ovlp3fn2%dat on task  13)
  |   Maximum:      172.041 MB (ovlp3fn2%dat on task  20)
  |   Average:      132.790 MB
  Note:  These values currently only include a subset of arrays which are explicitly tracked.
  The "true" memory usage will be greater.
------------------------------------------------------------

  Energy and forces in a compact form:
  | Total energy uncorrected      :         -0.148569337494222E+05 eV
  | Total energy corrected        :         -0.148569337494222E+05 eV  <-- do not rely on this value for anything but (periodic) metals
  | Electronic free energy        :         -0.148569337494222E+05 eV

  ------------------------------------ 
  Start decomposition of the XC Energy 
  ------------------------------------ 
  X and C from original XC functional choice 
  Hartree-Fock Energy :        -19.222838604 Ha           -523.080052425 eV
  X Energy            :        -76.649509415 Ha          -2085.739272430 eV
  C Energy            :         -3.256027200 Ha            -88.601008073 eV
  XC Energy w/o HF    :        -60.682698011 Ha          -1651.260228078 eV
  Total XC Energy     :        -79.905536615 Ha          -2174.340280503 eV
  ------------------------------------ 
  LDA X and C from self-consistent density 
  X Energy LDA        :        -69.378663797 Ha          -1887.889496686 eV
  C Energy LDA        :         -6.282184104 Ha           -170.946927164 eV
  ------------------------------------ 
  End decomposition of the XC Energy 
  ------------------------------------ 

------------------------------------------------------------
------------------------------------------------------------

------------------------------------------------------------------------------
  Final output of selected total energy values:

  The following output summarizes some interesting total energy values
  at the end of a run (AFTER all relaxation, molecular dynamics, etc.).

  | Total energy of the DFT / Hartree-Fock s.c.f. calculation      :         -14856.933749422 eV
  | Final zero-broadening corrected energy (caution - metals only) :         -14856.933749422 eV
  | For reference only, the value of 1 Hartree used in FHI-aims is :             27.211384500 eV

  Before relying on these values, please be sure to understand exactly which
  total energy value is referred to by a given number. Different objects may
  all carry the same name 'total energy'. Definitions:

  Total energy of the DFT / Hartree-Fock s.c.f. calculation:
  | Note that this energy does not include ANY quantities calculated after the
  | s.c.f. cycle, in particular not ANY RPA, MP2, etc. many-body perturbation terms.

  Final zero-broadening corrected energy:
  | For metallic systems only, a broadening of the occupation numbers at the Fermi
  | level can be extrapolated back to zero broadening by an electron-gas inspired
  | formula. For all systems that are not real metals, this value can be
  | meaningless and should be avoided.

------------------------------------------------------------------------------
  Methods described in the following list of references were used in this FHI-aims run.
  If you publish the results, please make sure to cite these reference if they apply.
  FHI-aims is an academic code, and for our developers (often, Ph.D. students
  and postdocs), scientific credit in the community is essential.
  Thank you for helping us!

  For any use of FHI-aims, please cite:

    Volker Blum, Ralf Gehrke, Felix Hanke, Paula Havu, Ville Havu,
    Xinguo Ren, Karsten Reuter, and Matthias Scheffler
    'Ab initio molecular simulations with numeric atom-centered orbitals'
    Computer Physics Communications 180, 2175-2196 (2009)
    http://doi.org/10.1016/j.cpc.2009.06.022


  For the NAO-VCC-nZ basis sets used in this calculation, please cite:

    Igor Ying Zhang, Xinguo Ren, Patrick Rinke, Volker Blum, and Matthias Scheffler
    'Numeric atom-centered-orbital basis sets with valence-correlation consistency from H to Ar'
    New Journal of Physics 15, 123033 (2013).
    http://doi.org/10.1088/1367-2630/15/12/123033


  For Hartree-Fock, hybrid functionals, or many-body perturbation theory used in your run, please cite:

    Xinguo Ren, Patrick Rinke, Volker Blum, Juergen Wieferink, Alex Tkatchenko,
    Andrea Sanfilippo, Karsten Reuter, and Matthias Scheffler,
    'Resolution-of-identity approach to Hartree-Fock, hybrid density functionals,
    RPA, MP2, and GW with numeric atom-centered orbital basis functions'
    New Journal of Physics 14, 053020 (2012).
    http://doi.org/10.1088/1367-2630/14/5/053020


  For using hybrid functionals or Hartree-Fock in FHI-aims, please cite

    Sergey V. Levchenko, Xinguo Ren, Juergen Wieferink, Rainer Joahanni,
    Patrick Rinke, Volker Blum, and Matthias Scheffler
    Hybrid functionals for large periodic systems in an all-electron,
    numeric atom-centered basis framework

    Comput. Phys. Commun. 192, 60-69 (2015)
    https://doi.org/10.1016/j.cpc.2015.02.021


  For using hybrid functionals or Hartree-Fock in FHI-aims, please also cite

    Sebastian Kokott, Florian Merz, Yi Yao, Christian Carbogno, Mariana Rossi,
    Ville Havu, Markus Rampp, Matthias Scheffler, and Volker Blum
    Efficient all-electron hybrid density functionals for atomistic simulations
    beyond 10,000 atoms

    J. Chem. Phys. 161, 024112 (2024)
    https://doi.org/10.1063/5.0208103


  The ELSI infrastructure was used in your run to solve the Kohn-Sham electronic structure.
  Please check out https://wordpress.elsi-interchange.org to learn more.
  If scalability is important for your project, please acknowledge ELSI by citing:

    V. W-z. Yu, F. Corsetti, A. Garcia, W. P. Huhn, M. Jacquelin, W. Jia,
    B. Lange, L. Lin, J. Lu, W. Mi, A. Seifitokaldani, A. Vazquez-Mayagoitia,
    C. Yang, H. Yang, and V. Blum
    'ELSI: A unified software interface for Kohn-Sham electronic structure solvers'
    Computer Physics Communications 222, 267-285 (2018).
    http://doi.org/10.1016/j.cpc.2017.09.007


  For the real-space grid partitioning and parallelization used in this calculation, please cite:

    Ville Havu, Volker Blum, Paula Havu, and Matthias Scheffler,
    'Efficient O(N) integration for all-electron electronic structure calculation'
    'using numerically tabulated basis functions'
    Journal of Computational Physics 228, 8367-8379 (2009).
    http://doi.org/10.1016/j.jcp.2009.08.008


  The high-level electronic structure method used in your calculation
  employed our efficient localized resolution of identity for the Coulomb operator.
  Some calculations, especially large-scale hybrid density functional theory,
  are only possible thanks to this development. For this feature, please cite:

    Arvid Ihrig, Juergen Wieferink, Igor Ying Zhang, Matti Ropo, Xinguo Ren,
    Patrick Rinke, Matthias Scheffler, and Volker Blum,
    'Accurate localized resolution of identity approach for linear-scaling
    hybrid density functionals and for many-body perturbation theory'
    New Journal of Physics 117, 093020 (2015).
    http://doi.org/10.1088/1367-2630/17/9/093020

  Of course, there are many other important community references, e.g., those cited in the
  above references. Our list is limited to references that describe implementations in the
  FHI-aims code. The reason is purely practical (length of this list) - please credit others as well.
------------------------------------------------------------
Warnings summary:

At least    2 warnings were raised during execution.

------------------------------------------------------------
          Leaving FHI-aims.
          Date     :  20250702, Time     :  115142.672

          Computational steps:
          | Number of self-consistency cycles          :           16
          | Number of SCF (re)initializations          :            1

          Detailed time accounting                     :  max(cpu_time)    wall_clock(cpu1)
          | Total time                                  :      166.047 s         168.577 s
          | Preparation time                            :        0.338 s           0.354 s
          | Boundary condition initalization            :        0.056 s           0.057 s
          | Grid partitioning                           :        0.531 s           0.593 s
          | Preloading free-atom quantities on grid     :        0.139 s           0.171 s
          | Free-atom superposition energy              :        0.012 s           0.013 s
          | Total time for integrations                 :        8.951 s           9.013 s
          | Product basis setup: Total time             :       17.613 s          17.770 s
          | Total time evaluating exchange matrix       :      114.124 s         114.205 s
          | Total time for solution of K.-S. equations  :        4.981 s           5.072 s
          | Total time for density update               :       16.104 s          16.280 s
          | Total time for mixing                       :        0.046 s           0.041 s
          | Total time for Hartree multipole update     :        0.109 s           0.110 s
          | Total time for Hartree multipole sum        :        1.293 s           1.294 s
          | Total time for total energy evaluation      :        0.014 s           0.013 s
          | Total time for scaled ZORA corrections      :        0.000 s           0.000 s

          Partial memory accounting:
          | Residual value for overall tracked memory usage across tasks:     0.000000 MB (should be 0.000000 MB)
          | Peak values for overall tracked memory usage:
          |   Minimum:      112.939 MB (on task 237 after allocating gradient_basis_wave)
          |   Maximum:      226.382 MB (on task 148 after allocating ovlp3fn2%n)
          |   Average:      172.369 MB
          | Largest tracked array allocation:
          |   Minimum:       80.580 MB (ovlp3fn2%dat on task  13)
          |   Maximum:      172.041 MB (ovlp3fn2%dat on task  20)
          |   Average:      132.790 MB
          Note:  These values currently only include a subset of arrays which are explicitly tracked.
          The "true" memory usage will be greater.

          Have a nice day.
------------------------------------------------------------
