------------------------------------------------------------
          Invoking FHI-aims ...

          When using FHI-aims, please cite the following reference:

            Volker Blum, Ralf Gehrke, Felix Hanke, Paula Havu,
            Ville Havu, Xinguo Ren, Karsten Reuter, and Matthias Scheffler,
            'Ab Initio Molecular Simulations with Numeric Atom-Centered Orbitals',
            Computer Physics Communications 180, 2175-2196 (2009)

          In addition, many other developments in FHI-aims are likely important for
          your particular application. If so, please cite them. A partial list of references
          is written at the end of this file. Thank you for giving credit to the authors
          of these developments.

          For general information about FHI-aims please find us at

            https://fhi-aims.org

          Online tutorials can be found at

            https://fhi-aims-club.gitlab.io/tutorials/tutorials-overview/

          For any questions about FHI-aims, please visit our slack channel at

            https://fhi-aims.slack.com

          and our main development and support site at

            https://aims-git.rz-berlin.mpg.de .

          The latter site, in particular, has a wiki to collect information, as well
          as an issue tracker to log discussions, suggest improvements, and report issues
          or bugs. https://aims-git.rz-berlin.mpg.de is also the main development site
          of the project and all new and updated code versions can be obtained there.
          Please send an email to aims-coordinators@fhi-berlin.mpg.de and we will add
          you to these sites. They are for you and everyone is welcome there.

------------------------------------------------------------



  Date     :  20250713, Time     :  224016.746
  Time zero on CPU 1             :   0.452823800000000E+01  s.
  Internal wall clock time zero  :           521678416.746  s.

  FHI-aims created a unique identifier for this run for later identification
  aims_uuid : 0C129843-C62E-45EB-AB1C-BDB5265B2079

  Build configuration of the current instance of FHI-aims
  -------------------------------------------------------
  FHI-aims version      : 250403
  Commit number         : 316072d87
  CMake host system     : Linux-5.14.21-150400.24.46_12.0.70-cray_shasta_c
  CMake version         : 3.20.4
  Fortran compiler      : /opt/cray/pe/craype/2.7.19/bin/ftn (GNU) version 11.2.0
  Fortran compiler flags: -O2 -fPIC -fallow-argument-mismatch -ffree-line-length-none
  C compiler            : /opt/cray/pe/craype/2.7.19/bin/cc (GNU) version 11.2.0
  C compiler flags      : -O2
  C++ compiler          : /opt/cray/pe/gcc/11.2.0/bin/c++ (GNU) version 11.2.0
  C++ compiler flags    : -O2
  HIP compiler          :
  HIP compiler flags    :
  HIP GPU arch          :
  Using MPI
  Using ScaLAPACK
  Using LibXC
  Using i-PI
  Using RLSY
  Linking against:

  Using      128 parallel tasks.
  Task        0 on host nid001816 reporting.
  Task        1 on host nid001816 reporting.
  Task        2 on host nid001816 reporting.
  Task        3 on host nid001816 reporting.
  Task        4 on host nid001816 reporting.
  Task        5 on host nid001816 reporting.
  Task        6 on host nid001816 reporting.
  Task        7 on host nid001816 reporting.
  Task        8 on host nid001816 reporting.
  Task        9 on host nid001816 reporting.
  Task       10 on host nid001816 reporting.
  Task       11 on host nid001816 reporting.
  Task       12 on host nid001816 reporting.
  Task       13 on host nid001816 reporting.
  Task       14 on host nid001816 reporting.
  Task       15 on host nid001816 reporting.
  Task       16 on host nid001816 reporting.
  Task       17 on host nid001816 reporting.
  Task       18 on host nid001816 reporting.
  Task       19 on host nid001816 reporting.
  Task       20 on host nid001816 reporting.
  Task       21 on host nid001816 reporting.
  Task       22 on host nid001816 reporting.
  Task       23 on host nid001816 reporting.
  Task       24 on host nid001816 reporting.
  Task       25 on host nid001816 reporting.
  Task       26 on host nid001816 reporting.
  Task       27 on host nid001816 reporting.
  Task       28 on host nid001816 reporting.
  Task       29 on host nid001816 reporting.
  Task       30 on host nid001816 reporting.
  Task       31 on host nid001816 reporting.
  Task       32 on host nid001816 reporting.
  Task       33 on host nid001816 reporting.
  Task       34 on host nid001816 reporting.
  Task       35 on host nid001816 reporting.
  Task       36 on host nid001816 reporting.
  Task       37 on host nid001816 reporting.
  Task       38 on host nid001816 reporting.
  Task       39 on host nid001816 reporting.
  Task       40 on host nid001816 reporting.
  Task       41 on host nid001816 reporting.
  Task       42 on host nid001816 reporting.
  Task       43 on host nid001816 reporting.
  Task       44 on host nid001816 reporting.
  Task       45 on host nid001816 reporting.
  Task       46 on host nid001816 reporting.
  Task       47 on host nid001816 reporting.
  Task       48 on host nid001816 reporting.
  Task       49 on host nid001816 reporting.
  Task       50 on host nid001816 reporting.
  Task       51 on host nid001816 reporting.
  Task       52 on host nid001816 reporting.
  Task       53 on host nid001816 reporting.
  Task       54 on host nid001816 reporting.
  Task       55 on host nid001816 reporting.
  Task       56 on host nid001816 reporting.
  Task       57 on host nid001816 reporting.
  Task       58 on host nid001816 reporting.
  Task       59 on host nid001816 reporting.
  Task       60 on host nid001816 reporting.
  Task       61 on host nid001816 reporting.
  Task       62 on host nid001816 reporting.
  Task       63 on host nid001816 reporting.
  Task       64 on host nid001816 reporting.
  Task       65 on host nid001816 reporting.
  Task       66 on host nid001816 reporting.
  Task       67 on host nid001816 reporting.
  Task       68 on host nid001816 reporting.
  Task       69 on host nid001816 reporting.
  Task       70 on host nid001816 reporting.
  Task       71 on host nid001816 reporting.
  Task       72 on host nid001816 reporting.
  Task       73 on host nid001816 reporting.
  Task       74 on host nid001816 reporting.
  Task       75 on host nid001816 reporting.
  Task       76 on host nid001816 reporting.
  Task       77 on host nid001816 reporting.
  Task       78 on host nid001816 reporting.
  Task       79 on host nid001816 reporting.
  Task       80 on host nid001816 reporting.
  Task       81 on host nid001816 reporting.
  Task       82 on host nid001816 reporting.
  Task       83 on host nid001816 reporting.
  Task       84 on host nid001816 reporting.
  Task       85 on host nid001816 reporting.
  Task       86 on host nid001816 reporting.
  Task       87 on host nid001816 reporting.
  Task       88 on host nid001816 reporting.
  Task       89 on host nid001816 reporting.
  Task       90 on host nid001816 reporting.
  Task       91 on host nid001816 reporting.
  Task       92 on host nid001816 reporting.
  Task       93 on host nid001816 reporting.
  Task       94 on host nid001816 reporting.
  Task       95 on host nid001816 reporting.
  Task       96 on host nid001816 reporting.
  Task       97 on host nid001816 reporting.
  Task       98 on host nid001816 reporting.
  Task       99 on host nid001816 reporting.
  Task      100 on host nid001816 reporting.
  Task      101 on host nid001816 reporting.
  Task      102 on host nid001816 reporting.
  Task      103 on host nid001816 reporting.
  Task      104 on host nid001816 reporting.
  Task      105 on host nid001816 reporting.
  Task      106 on host nid001816 reporting.
  Task      107 on host nid001816 reporting.
  Task      108 on host nid001816 reporting.
  Task      109 on host nid001816 reporting.
  Task      110 on host nid001816 reporting.
  Task      111 on host nid001816 reporting.
  Task      112 on host nid001816 reporting.
  Task      113 on host nid001816 reporting.
  Task      114 on host nid001816 reporting.
  Task      115 on host nid001816 reporting.
  Task      116 on host nid001816 reporting.
  Task      117 on host nid001816 reporting.
  Task      118 on host nid001816 reporting.
  Task      119 on host nid001816 reporting.
  Task      120 on host nid001816 reporting.
  Task      121 on host nid001816 reporting.
  Task      122 on host nid001816 reporting.
  Task      123 on host nid001816 reporting.
  Task      124 on host nid001816 reporting.
  Task      125 on host nid001816 reporting.
  Task      126 on host nid001816 reporting.
  Task      127 on host nid001816 reporting.

  Obtaining array dimensions for all initial allocations:
  
  -----------------------------------------------------------------------
  Parsing control.in (first pass over file, find array dimensions only).
  The contents of control.in will be repeated verbatim below
  unless switched off by setting 'verbatim_writeout .false.' .
  in the first line of control.in .
  -----------------------------------------------------------------------
  
  #===============================================================================
  # Created using the Atomic Simulation Environment (ASE)
  
  # Sun Jul 13 22:40:13 2025
  
  #===============================================================================
  xc                                 PBE
  output_level                       full
  relativistic                       atomic_zora scalar
  occupation_type                    gaussian 0.01
  mixer                              pulay
  n_max_pulay                        10
  KS_method                          parallel
  RI_method                          LVL
  collect_eigenvectors               .true.
  density_update_method              density_matrix
  atomic_solver_xc                   PBE
  basis_threshold                    1e-05
  override_illconditioning           .true.
  override_initial_charge_check      .true.
  use_2d_corr                        .false.
  qm_embedding_mo_localise           .true.
  qm_embedding_calc                  1
  charge                             -0.0
  #===============================================================================
  
  ################################################################################
  #
  #  FHI-aims code project
  # Igor Ying Zhang and Xinguo Ren, Fritz Haber Institute Berlin, 2012
  #
  #  Suggested "NAO-VCC-5Z" defaults for O atom (to be pasted into control.in file)
  #
  #  Please cite:
  #
  #  Igor Ying Zhang, Xinguo Ren, Patrick Rinke, Volker Blum, and Matthias Scheffler,
  #  "Numeric atom-centered-orbital basis sets with valence-correlation consistency from H to Ar"
  #  New Journal of Physics 15, 123033 (2013).
  #  http://dx.doi.org/10.1088/1367-2630/15/12/123033
  #
  ################################################################################
    species        O
  #     set basis set reference for FHI-aims output
      cite_reference NAO-VCC-2013
  #     global species definitions
      nucleus             8
      mass                15.9994
  #
      l_hartree           6
  #
      cut_pot             4.0  2.0  1.0
      basis_dep_cutoff    0e-4
  #
      radial_base         36 7.0
      radial_multiplier   2
      angular_grids       specified
        division   0.1817   50
        division   0.3417  110
        division   0.4949  194
        division   0.6251  302
        division   0.8014  434
        division   0.8507  590
  #      division   0.8762  770
  #      division   0.9023  974
  #      division   1.2339 1202
  #      outer_grid 974
        outer_grid 770
  #      outer_grid  434
  ################################################################################
  #
  #  Definition of "minimal" basis
  #
  ################################################################################
  #     valence basis states
      valence      2  s   2.
      valence      2  p   4.
  #     ion occupancy
      ion_occ      2  s   1.
      ion_occ      2  p   3.
  ################################################################################
  
   basis_acc              1e-04
  #============================================
  # Optimization in      O for       NAO-VCC-5Z
  #============================================
  # (sp) correlation set
   hydro     1     s      2.09469909
   hydro     1     s      3.53618948
   hydro     1     s      5.96965744
   hydro     1     s     10.07774333
   hydro     2     p      2.20837049
   hydro     2     p      3.61767613
   hydro     2     p      5.92635187
   hydro     2     p      9.70834459
  # polarization set
   hydro     3     d      7.12202873
   hydro     3     d      9.46691758
   hydro     3     d     12.58384822
   hydro     3     d     16.72701115
   hydro     4     f     12.99915545
   hydro     4     f     15.67359110
   hydro     4     f     18.89826297
   hydro     5     g     21.03738814
   hydro     5     g     24.09299915
   hydro     6     h     30.60977870
  # (sp) enhanced minimal basis
   hydro     1     s     16.83050443
   hydro     1     s     24.69876230
   hydro     2     p     12.01245604
  ################################################################################
  #
  #  FHI-aims code project
  # Igor Ying Zhang and Xinguo Ren, Fritz Haber Institute Berlin, 2012
  #
  #  Suggested "NAO-VCC-5Z" defaults for H atom (to be pasted into control.in file)
  #
  #  Please cite:
  #
  #  Igor Ying Zhang, Xinguo Ren, Patrick Rinke, Volker Blum, and Matthias Scheffler,
  #  "Numeric atom-centered-orbital basis sets with valence-correlation consistency from H to Ar"
  #  New Journal of Physics 15, 123033 (2013).
  #  http://dx.doi.org/10.1088/1367-2630/15/12/123033
  #
  ################################################################################
    species        H
  #     set basis set reference for FHI-aims output
      cite_reference NAO-VCC-2013
  #     global species definitions
      nucleus             1
      mass                1.00794
  #
      l_hartree           6
  #
      cut_pot             4.0  2.0  1.0
      basis_dep_cutoff    0e-4
  #
      radial_base         24 7.0
      radial_multiplier   2
      angular_grids       specified
        division   0.1930   50
        division   0.3175  110
        division   0.4293  194
        division   0.5066  302
        division   0.5626  434
        division   0.5922  590
  #      division   0.6227  974
  #      division   0.6868 1202
        outer_grid  770
  #      outer_grid  434
  ################################################################################
  #
  #  Definition of "minimal" basis
  #
  ################################################################################
  #     valence basis states
      valence      1  s   1.
  #     ion occupancy
      ion_occ      1  s   0.5
  ################################################################################
  
  
   basis_acc              1e-04
  #============================================
  # Optimization in      H for       NAO-VCC-5Z
  #============================================
  # (sp) correlation set
   hydro     1     s      1.11779553
   hydro     1     s      1.56046949
   hydro     1     s      2.17845300
   hydro     1     s      3.04117285
   hydro     2     p      2.80545446
   hydro     2     p      3.98653311
   hydro     2     p      5.66483842
   hydro     2     p      8.04969969
  # polarization set
   hydro     3     d      5.99962077
   hydro     3     d      7.92382663
   hydro     3     d     10.46516619
   hydro     4     f     10.68384218
   hydro     4     f     13.30715397
   hydro     5     g     16.73481614
  # (sp) enhanced minimal set
   hydro     1     s      4.24555056
  ################################################################################
  #
  #  FHI-aims code project
  # Igor Ying Zhang and Xinguo Ren, Fritz Haber Institute Berlin, 2012
  #
  #  Suggested "NAO-VCC-5Z" defaults for C atom (to be pasted into control.in file)
  #
  #  Please cite:
  #
  #  Igor Ying Zhang, Xinguo Ren, Patrick Rinke, Volker Blum, and Matthias Scheffler,
  #  "Numeric atom-centered-orbital basis sets with valence-correlation consistency from H to Ar"
  #  New Journal of Physics 15, 123033 (2013).
  #  http://dx.doi.org/10.1088/1367-2630/15/12/123033
  #
  ################################################################################
    species        C
  #     set basis set reference for FHI-aims output
      cite_reference NAO-VCC-2013
  #     global species definitions
      nucleus             6
      mass                12.0107
  #
      l_hartree           6
  #
      cut_pot             4.0  2.0  1.0
      basis_dep_cutoff    0e-4
  #
      radial_base         34 7.0
      radial_multiplier   2
      angular_grids       specified
        division   0.2187   50
        division   0.4416  110
        division   0.6335  194
        division   0.7727  302
        division   0.8772  434
        division   0.9334  590
  #      division   0.9924  770
  #      division   1.0230  974
  #      division   1.5020 1202
  #      outer_grid  974
        outer_grid  770
  #      outer_grid  434
  ################################################################################
  #
  #  Definition of "minimal" basis
  #
  ################################################################################
  #     valence basis states
      valence      2  s   2.
      valence      2  p   2.
  #     ion occupancy
      ion_occ      2  s   1.
      ion_occ      2  p   1.
  ################################################################################
  
   basis_acc              1e-04
  #============================================
  # Optimization in      C for       NAO-VCC-5Z
  #============================================
  # (sp) correlation set
   hydro     1     s      1.62265497
   hydro     1     s      3.22740086
   hydro     1     s      6.41918123
   hydro     1     s     12.76751462
   hydro     2     p      2.41714682
   hydro     2     p      4.10436269
   hydro     2     p      6.96928833
   hydro     2     p     11.83398824
  # polarization set
   hydro     3     d      5.11061165
   hydro     3     d      6.86104896
   hydro     3     d      9.21102914
   hydro     3     d     12.36590183
   hydro     4     f     10.51851587
   hydro     4     f     11.50444114
   hydro     4     f     12.58277951
   hydro     5     g     16.24617922
   hydro     5     g     16.79172767
   hydro     6     h     22.55440019
  # (sp) enhanced minimal set
   hydro     1     s     15.61141940
   hydro     1     s     29.66159935
   hydro     2     p     10.71433476
  
  -----------------------------------------------------------------------
  Completed first pass over input file control.in .
  -----------------------------------------------------------------------
  
  
  -----------------------------------------------------------------------
  Parsing geometry.in (first pass over file, find array dimensions only).
  The contents of geometry.in will be repeated verbatim below
  unless switched off by setting 'verbatim_writeout .false.' .
  in the first line of geometry.in .
  -----------------------------------------------------------------------
  
  #===============================================================================
  # Created using the Atomic Simulation Environment (ASE)
  
  # Sun Jul 13 22:40:13 2025
  
  #=======================================================
  atom -2.4570492700000002 1.6938540300000000 -1.5919615000000000 O
  qm_embedding_region 1
  atom -3.1820830299999998 2.3092678400000000 -1.4047866400000000 H
  qm_embedding_region 1
  atom -4.3595134599999996 -1.7049052300000000 1.4432162799999999 O
  qm_embedding_region 1
  atom -3.9924159399999999 -1.1090525200000001 0.7498436300000000 H
  qm_embedding_region 1
  atom -0.0765463200000000 1.4456285799999999 -1.6798212900000000 C
  qm_embedding_region 2
  atom -1.2344372900000000 2.2909187800000002 -1.1627688100000000 C
  qm_embedding_region 2
  atom 1.2799749800000000 1.9416852700000000 -1.1986247299999999 C
  qm_embedding_region 2
  atom 3.7949890200000000 1.5705763100000001 -1.2305919400000001 C
  qm_embedding_region 2
  atom 3.9477776200000001 2.6392660299999999 -1.4110174799999999 H
  qm_embedding_region 2
  atom 2.4131541900000002 1.1536051300000001 -2.8390483099999999 H
  qm_embedding_region 2
  atom 2.2734241700000002 0.0575064900000000 -1.4662178800000001 H
  qm_embedding_region 2
  atom 1.4079341800000000 2.9905765199999998 -1.5022387900000000 H
  qm_embedding_region 2
  atom 1.2901539000000000 1.9232422899999999 -0.0994742400000000 H
  qm_embedding_region 2
  atom -0.0888663200000000 1.4411983600000000 -2.7802970299999998 H
  qm_embedding_region 2
  atom 4.5936298000000004 1.0254064800000000 -1.7387856600000000 H
  qm_embedding_region 2
  atom 2.4377837699999998 1.1058721700000000 -1.7433628699999999 C
  qm_embedding_region 2
  atom -1.1544770799999999 3.3120897500000002 -1.5645741399999999 H
  qm_embedding_region 2
  atom -0.2035959200000000 0.4019604200000000 -1.3542564900000000 H
  qm_embedding_region 2
  atom -4.6845105499999997 -7.8507389900000000 2.5391040399999998 C
  qm_embedding_region 2
  atom -1.2007170700000001 2.3296674199999998 -0.0627912100000000 H
  qm_embedding_region 2
  atom -4.9447976200000001 -6.3895239899999998 2.8815860899999999 C
  qm_embedding_region 2
  atom -4.5689247899999996 -5.4397207300000003 1.7433153400000001 C
  qm_embedding_region 2
  atom -4.7738726199999997 -3.9732622100000001 2.0937187399999999 C
  qm_embedding_region 2
  atom -4.2734860000000001 -3.0275456400000000 0.9967403700000000 C
  qm_embedding_region 2
  atom -4.9300196999999999 -8.4848734300000004 3.3940723899999998 H
  qm_embedding_region 2
  atom -5.2952672999999999 -8.1754948600000006 1.6906695100000000 H
  qm_embedding_region 2
  atom -3.6319166200000002 -8.0147405999999997 2.2870404899999999 H
  qm_embedding_region 2
  atom -4.3709652500000002 -6.1047659400000001 3.7718493500000001 H
  qm_embedding_region 2
  atom -6.0040426199999999 -6.2421081999999997 3.1224893699999998 H
  qm_embedding_region 2
  atom -3.5150274399999999 -5.5961320199999998 1.4721294500000000 H
  qm_embedding_region 2
  atom -5.1672109199999996 -5.6798084500000003 0.8526411400000000 H
  qm_embedding_region 2
  atom 3.8949292099999999 1.3873343899999999 -0.1558025900000000 H
  qm_embedding_region 2
  atom -4.2535942499999999 -3.7521138500000002 3.0373312900000000 H
  qm_embedding_region 2
  atom -5.8461641899999996 -3.7893040700000000 2.2593167599999999 H
  qm_embedding_region 2
  atom -3.2297188399999999 -3.2888903300000001 0.7496481500000000 H
  qm_embedding_region 2
  atom -4.8928751699999999 -3.1732709600000000 0.0951177300000000 H
  qm_embedding_region 2
  
  -----------------------------------------------------------------------
  Completed first pass over input file geometry.in .
  -----------------------------------------------------------------------
  

  Basic array size parameters:
  | Number of species                 :        3
  | Number of atoms                   :       36
  | Max. basis fn. angular momentum   :        5
  | Max. atomic/ionic basis occupied n:        2
  | Max. number of basis fn. types    :        2
  | Max. radial fns per species/type  :       21
  | Max. logarithmic grid size        :     1301
  | Max. radial integration grid size :       73
  | Max. angular integration grid size:      770
  | Max. angular grid division number :        8
  | Radial grid for Hartree potential :     1301
  | Number of spin channels           :        1

  Definition of standardized fundamental physical constants in this FHI-aims run:
  | Using the set of values used in FHI-aims up to 2024, which combines values from
  | different CODATA sets - see constants.f90.
  | Use the 'codata' keyword in control.in to change this selection.

  Memory overcommitment is allowed on your operating system.

------------------------------------------------------------
          Reading file control.in.
------------------------------------------------------------
  XC: Using PBE gradient-corrected functionals.
  Requested output level: full
  Scalar relativistic treatment of kinetic energy: on-site free-atom approximation to ZORA.
  Occupation type: Gaussian broadening, width =   0.100000E-01 eV.
  Using pulay charge density mixing.
  Pulay mixing - number of memorized iterations:   10
  Kohn-Sham electronic structure solved by the ELSI library.
  The 'LVL' version of RI (resolution of identity) technique is used.
  ** This is a localized expansion of all basis function products.
     Its intended use are Hartree-Fock and hybrid functionals.
     For RPA, MP2, GW, etc., LVL is not yet as accurate. In those cases, check carefully.
  Atomic Solver XC: Using user-defined functional for generating the minimal NAO basis functions.
  Note that only the following functionals are available: kli, pz-lda, pw-lda, vwn, vwn-gauss, pw91_gga, pbe, rpbe, revpbe, pbeint, blyp.
  Threshold for basis singularities:  0.1000E-04
  override_illconditioning: Explicitly overriding any built-in checks for an ill-conditioned overlap matrix.
** WARNING:
  ***  If you use this flag, you should really know what you are doing.
** END OF WARNING
** WARNING:
  *** DO NOT keep this flag set by default in all your control.in files.
** END OF WARNING
  Old 1D distribution for correlation code.
  Charge =  -0.000000E+00: Neutral system requested explicitly.

  Reading configuration options for species O                   .
  | Found nuclear charge :   8.0000
  | Found atomic mass :    15.999400000000000      amu
  | Found l_max for Hartree potential  :   6
  | Found cutoff potl. onset [A], width [A], scale factor :    4.00000    2.00000    1.00000
  | Threshold for basis-dependent cutoff potential is   0.000000E+00
  | Found data for basic radial integration grid :    36 points, outermost radius =    7.000 A
  | Found multiplier for basic radial grid :   2
  | Found angular grid specification: user-specified.
  | Specified grid contains     7 separate shells.
  | Check grid settings after all constraints further below.
  | Found free-atom valence shell :  2 s   2.000
  | Found free-atom valence shell :  2 p   4.000
  | No ionic wave fns used. Skipping ion_occ.
  | No ionic wave fns used. Skipping ion_occ.
  | Found basis singularity cutoff : 0.1000E-03
  | Found hydrogenic basis function :  1 s   2.095
  | Found hydrogenic basis function :  1 s   3.536
  | Found hydrogenic basis function :  1 s   5.970
  | Found hydrogenic basis function :  1 s  10.078
  | Found hydrogenic basis function :  2 p   2.208
  | Found hydrogenic basis function :  2 p   3.618
  | Found hydrogenic basis function :  2 p   5.926
  | Found hydrogenic basis function :  2 p   9.708
  | Found hydrogenic basis function :  3 d   7.122
  | Found hydrogenic basis function :  3 d   9.467
  | Found hydrogenic basis function :  3 d  12.584
  | Found hydrogenic basis function :  3 d  16.727
  | Found hydrogenic basis function :  4 f  12.999
  | Found hydrogenic basis function :  4 f  15.674
  | Found hydrogenic basis function :  4 f  18.898
  | Found hydrogenic basis function :  5 g  21.037
  | Found hydrogenic basis function :  5 g  24.093
  | Found hydrogenic basis function :  6 h  30.610
  | Found hydrogenic basis function :  1 s  16.831
  | Found hydrogenic basis function :  1 s  24.699
  | Found hydrogenic basis function :  2 p  12.012
 | Encountered keyword species, ending the description of species O                   .
  Species O                   : Missing cutoff potential type.
  Defaulting to exp(1/x)/(1-x)^2 type cutoff potential.
  Species O : No 'logarithmic' tag. Using default grid for free atom:
  | Default logarithmic grid data [bohr] : 0.1000E-03 0.1000E+03 0.1012E+01
  Species O                   : Using default innermost maximum threshold i_radial=  2 for radial functions.
  Species O                   : Default cutoff onset for free atom density etc. : 0.40000000E+01 AA.
  Species O                   : Basic radial grid will be enhanced according to radial_multiplier =   2, to contain    73 grid points.

  Reading configuration options for species H                   .
  | Found nuclear charge :   1.0000
  | Found atomic mass :    1.0079400000000001      amu
  | Found l_max for Hartree potential  :   6
  | Found cutoff potl. onset [A], width [A], scale factor :    4.00000    2.00000    1.00000
  | Threshold for basis-dependent cutoff potential is   0.000000E+00
  | Found data for basic radial integration grid :    24 points, outermost radius =    7.000 A
  | Found multiplier for basic radial grid :   2
  | Found angular grid specification: user-specified.
  | Specified grid contains     7 separate shells.
  | Check grid settings after all constraints further below.
  | Found free-atom valence shell :  1 s   1.000
  | No ionic wave fns used. Skipping ion_occ.
  | Found basis singularity cutoff : 0.1000E-03
  | Found hydrogenic basis function :  1 s   1.118
  | Found hydrogenic basis function :  1 s   1.560
  | Found hydrogenic basis function :  1 s   2.178
  | Found hydrogenic basis function :  1 s   3.041
  | Found hydrogenic basis function :  2 p   2.805
  | Found hydrogenic basis function :  2 p   3.987
  | Found hydrogenic basis function :  2 p   5.665
  | Found hydrogenic basis function :  2 p   8.050
  | Found hydrogenic basis function :  3 d   6.000
  | Found hydrogenic basis function :  3 d   7.924
  | Found hydrogenic basis function :  3 d  10.465
  | Found hydrogenic basis function :  4 f  10.684
  | Found hydrogenic basis function :  4 f  13.307
  | Found hydrogenic basis function :  5 g  16.735
  | Found hydrogenic basis function :  1 s   4.246
 | Encountered keyword species, ending the description of species H                   .
  Species H                   : Missing cutoff potential type.
  Defaulting to exp(1/x)/(1-x)^2 type cutoff potential.
  Species H : No 'logarithmic' tag. Using default grid for free atom:
  | Default logarithmic grid data [bohr] : 0.1000E-03 0.1000E+03 0.1012E+01
  Species H                   : Using default innermost maximum threshold i_radial=  2 for radial functions.
  Species H                   : Default cutoff onset for free atom density etc. : 0.40000000E+01 AA.
  Species H                   : Basic radial grid will be enhanced according to radial_multiplier =   2, to contain    49 grid points.

  Reading configuration options for species C                   .
  | Found nuclear charge :   6.0000
  | Found atomic mass :    12.010700000000000      amu
  | Found l_max for Hartree potential  :   6
  | Found cutoff potl. onset [A], width [A], scale factor :    4.00000    2.00000    1.00000
  | Threshold for basis-dependent cutoff potential is   0.000000E+00
  | Found data for basic radial integration grid :    34 points, outermost radius =    7.000 A
  | Found multiplier for basic radial grid :   2
  | Found angular grid specification: user-specified.
  | Specified grid contains     7 separate shells.
  | Check grid settings after all constraints further below.
  | Found free-atom valence shell :  2 s   2.000
  | Found free-atom valence shell :  2 p   2.000
  | No ionic wave fns used. Skipping ion_occ.
  | No ionic wave fns used. Skipping ion_occ.
  | Found basis singularity cutoff : 0.1000E-03
  | Found hydrogenic basis function :  1 s   1.623
  | Found hydrogenic basis function :  1 s   3.227
  | Found hydrogenic basis function :  1 s   6.419
  | Found hydrogenic basis function :  1 s  12.768
  | Found hydrogenic basis function :  2 p   2.417
  | Found hydrogenic basis function :  2 p   4.104
  | Found hydrogenic basis function :  2 p   6.969
  | Found hydrogenic basis function :  2 p  11.834
  | Found hydrogenic basis function :  3 d   5.111
  | Found hydrogenic basis function :  3 d   6.861
  | Found hydrogenic basis function :  3 d   9.211
  | Found hydrogenic basis function :  3 d  12.366
  | Found hydrogenic basis function :  4 f  10.519
  | Found hydrogenic basis function :  4 f  11.504
  | Found hydrogenic basis function :  4 f  12.583
  | Found hydrogenic basis function :  5 g  16.246
  | Found hydrogenic basis function :  5 g  16.792
  | Found hydrogenic basis function :  6 h  22.554
  | Found hydrogenic basis function :  1 s  15.611
  | Found hydrogenic basis function :  1 s  29.662
  | Found hydrogenic basis function :  2 p  10.714
  Species C                   : Missing cutoff potential type.
  Defaulting to exp(1/x)/(1-x)^2 type cutoff potential.
  Species C : No 'logarithmic' tag. Using default grid for free atom:
  | Default logarithmic grid data [bohr] : 0.1000E-03 0.1000E+03 0.1012E+01
  Species C                   : Using default innermost maximum threshold i_radial=  2 for radial functions.
  Species C                   : Default cutoff onset for free atom density etc. : 0.40000000E+01 AA.
  Species C                   : Basic radial grid will be enhanced according to radial_multiplier =   2, to contain    69 grid points.

  Finished reading input file 'control.in'.

------------------------------------------------------------


------------------------------------------------------------
          Reading geometry description geometry.in.
------------------------------------------------------------
  | The smallest distance between any two atoms is         0.96924844 AA.
  | The first atom of this pair is atom number                      1 .
  | The second atom of this pair is atom number                     2 .
  Input structure read successfully.
  The structure contains       36 atoms,  and a total of        100.000 electrons.

  Input geometry:
  | No unit cell requested.
  | Atomic structure:
  |       Atom                x [A]            y [A]            z [A]
  |    1: Species O            -2.45704927        1.69385403       -1.59196150
  |    2: Species H            -3.18208303        2.30926784       -1.40478664
  |    3: Species O            -4.35951346       -1.70490523        1.44321628
  |    4: Species H            -3.99241594       -1.10905252        0.74984363
  |    5: Species C            -0.07654632        1.44562858       -1.67982129
  |    6: Species C            -1.23443729        2.29091878       -1.16276881
  |    7: Species C             1.27997498        1.94168527       -1.19862473
  |    8: Species C             3.79498902        1.57057631       -1.23059194
  |    9: Species H             3.94777762        2.63926603       -1.41101748
  |   10: Species H             2.41315419        1.15360513       -2.83904831
  |   11: Species H             2.27342417        0.05750649       -1.46621788
  |   12: Species H             1.40793418        2.99057652       -1.50223879
  |   13: Species H             1.29015390        1.92324229       -0.09947424
  |   14: Species H            -0.08886632        1.44119836       -2.78029703
  |   15: Species H             4.59362980        1.02540648       -1.73878566
  |   16: Species C             2.43778377        1.10587217       -1.74336287
  |   17: Species H            -1.15447708        3.31208975       -1.56457414
  |   18: Species H            -0.20359592        0.40196042       -1.35425649
  |   19: Species C            -4.68451055       -7.85073899        2.53910404
  |   20: Species H            -1.20071707        2.32966742       -0.06279121
  |   21: Species C            -4.94479762       -6.38952399        2.88158609
  |   22: Species C            -4.56892479       -5.43972073        1.74331534
  |   23: Species C            -4.77387262       -3.97326221        2.09371874
  |   24: Species C            -4.27348600       -3.02754564        0.99674037
  |   25: Species H            -4.93001970       -8.48487343        3.39407239
  |   26: Species H            -5.29526730       -8.17549486        1.69066951
  |   27: Species H            -3.63191662       -8.01474060        2.28704049
  |   28: Species H            -4.37096525       -6.10476594        3.77184935
  |   29: Species H            -6.00404262       -6.24210820        3.12248937
  |   30: Species H            -3.51502744       -5.59613202        1.47212945
  |   31: Species H            -5.16721092       -5.67980845        0.85264114
  |   32: Species H             3.89492921        1.38733439       -0.15580259
  |   33: Species H            -4.25359425       -3.75211385        3.03733129
  |   34: Species H            -5.84616419       -3.78930407        2.25931676
  |   35: Species H            -3.22971884       -3.28889033        0.74964815
  |   36: Species H            -4.89287517       -3.17327096        0.09511773

  Slab Identifier: This is not a periodic structure.

  Finished reading input file 'geometry.in'.



  Consistency checks for stacksize environment parameter are next.

  | Maximum stacksize for task 0: unlimited
  | Maximum stacksize for task 1: unlimited
  | Maximum stacksize for task 2: unlimited
  | Maximum stacksize for task 3: unlimited
  | Maximum stacksize for task 4: unlimited
  | Maximum stacksize for task 5: unlimited
  | Maximum stacksize for task 6: unlimited
  | Maximum stacksize for task 7: unlimited
  | Maximum stacksize for task 8: unlimited
  | Maximum stacksize for task 9: unlimited
  | Maximum stacksize for task 10: unlimited
  | Maximum stacksize for task 11: unlimited
  | Maximum stacksize for task 12: unlimited
  | Maximum stacksize for task 13: unlimited
  | Maximum stacksize for task 14: unlimited
  | Maximum stacksize for task 15: unlimited
  | Maximum stacksize for task 16: unlimited
  | Maximum stacksize for task 17: unlimited
  | Maximum stacksize for task 18: unlimited
  | Maximum stacksize for task 19: unlimited
  | Maximum stacksize for task 20: unlimited
  | Maximum stacksize for task 21: unlimited
  | Maximum stacksize for task 22: unlimited
  | Maximum stacksize for task 23: unlimited
  | Maximum stacksize for task 24: unlimited
  | Maximum stacksize for task 25: unlimited
  | Maximum stacksize for task 26: unlimited
  | Maximum stacksize for task 27: unlimited
  | Maximum stacksize for task 28: unlimited
  | Maximum stacksize for task 29: unlimited
  | Maximum stacksize for task 30: unlimited
  | Maximum stacksize for task 31: unlimited
  | Maximum stacksize for task 32: unlimited
  | Maximum stacksize for task 33: unlimited
  | Maximum stacksize for task 34: unlimited
  | Maximum stacksize for task 35: unlimited
  | Maximum stacksize for task 36: unlimited
  | Maximum stacksize for task 37: unlimited
  | Maximum stacksize for task 38: unlimited
  | Maximum stacksize for task 39: unlimited
  | Maximum stacksize for task 40: unlimited
  | Maximum stacksize for task 41: unlimited
  | Maximum stacksize for task 42: unlimited
  | Maximum stacksize for task 43: unlimited
  | Maximum stacksize for task 44: unlimited
  | Maximum stacksize for task 45: unlimited
  | Maximum stacksize for task 46: unlimited
  | Maximum stacksize for task 47: unlimited
  | Maximum stacksize for task 48: unlimited
  | Maximum stacksize for task 49: unlimited
  | Maximum stacksize for task 50: unlimited
  | Maximum stacksize for task 51: unlimited
  | Maximum stacksize for task 52: unlimited
  | Maximum stacksize for task 53: unlimited
  | Maximum stacksize for task 54: unlimited
  | Maximum stacksize for task 55: unlimited
  | Maximum stacksize for task 56: unlimited
  | Maximum stacksize for task 57: unlimited
  | Maximum stacksize for task 58: unlimited
  | Maximum stacksize for task 59: unlimited
  | Maximum stacksize for task 60: unlimited
  | Maximum stacksize for task 61: unlimited
  | Maximum stacksize for task 62: unlimited
  | Maximum stacksize for task 63: unlimited
  | Maximum stacksize for task 64: unlimited
  | Maximum stacksize for task 65: unlimited
  | Maximum stacksize for task 66: unlimited
  | Maximum stacksize for task 67: unlimited
  | Maximum stacksize for task 68: unlimited
  | Maximum stacksize for task 69: unlimited
  | Maximum stacksize for task 70: unlimited
  | Maximum stacksize for task 71: unlimited
  | Maximum stacksize for task 72: unlimited
  | Maximum stacksize for task 73: unlimited
  | Maximum stacksize for task 74: unlimited
  | Maximum stacksize for task 75: unlimited
  | Maximum stacksize for task 76: unlimited
  | Maximum stacksize for task 77: unlimited
  | Maximum stacksize for task 78: unlimited
  | Maximum stacksize for task 79: unlimited
  | Maximum stacksize for task 80: unlimited
  | Maximum stacksize for task 81: unlimited
  | Maximum stacksize for task 82: unlimited
  | Maximum stacksize for task 83: unlimited
  | Maximum stacksize for task 84: unlimited
  | Maximum stacksize for task 85: unlimited
  | Maximum stacksize for task 86: unlimited
  | Maximum stacksize for task 87: unlimited
  | Maximum stacksize for task 88: unlimited
  | Maximum stacksize for task 89: unlimited
  | Maximum stacksize for task 90: unlimited
  | Maximum stacksize for task 91: unlimited
  | Maximum stacksize for task 92: unlimited
  | Maximum stacksize for task 93: unlimited
  | Maximum stacksize for task 94: unlimited
  | Maximum stacksize for task 95: unlimited
  | Maximum stacksize for task 96: unlimited
  | Maximum stacksize for task 97: unlimited
  | Maximum stacksize for task 98: unlimited
  | Maximum stacksize for task 99: unlimited
  | Maximum stacksize for task 100: unlimited
  | Maximum stacksize for task 101: unlimited
  | Maximum stacksize for task 102: unlimited
  | Maximum stacksize for task 103: unlimited
  | Maximum stacksize for task 104: unlimited
  | Maximum stacksize for task 105: unlimited
  | Maximum stacksize for task 106: unlimited
  | Maximum stacksize for task 107: unlimited
  | Maximum stacksize for task 108: unlimited
  | Maximum stacksize for task 109: unlimited
  | Maximum stacksize for task 110: unlimited
  | Maximum stacksize for task 111: unlimited
  | Maximum stacksize for task 112: unlimited
  | Maximum stacksize for task 113: unlimited
  | Maximum stacksize for task 114: unlimited
  | Maximum stacksize for task 115: unlimited
  | Maximum stacksize for task 116: unlimited
  | Maximum stacksize for task 117: unlimited
  | Maximum stacksize for task 118: unlimited
  | Maximum stacksize for task 119: unlimited
  | Maximum stacksize for task 120: unlimited
  | Maximum stacksize for task 121: unlimited
  | Maximum stacksize for task 122: unlimited
  | Maximum stacksize for task 123: unlimited
  | Maximum stacksize for task 124: unlimited
  | Maximum stacksize for task 125: unlimited
  | Maximum stacksize for task 126: unlimited
  | Maximum stacksize for task 127: unlimited
  | Current stacksize for task 0: unlimited
  | Current stacksize for task 1: unlimited
  | Current stacksize for task 2: unlimited
  | Current stacksize for task 3: unlimited
  | Current stacksize for task 4: unlimited
  | Current stacksize for task 5: unlimited
  | Current stacksize for task 6: unlimited
  | Current stacksize for task 7: unlimited
  | Current stacksize for task 8: unlimited
  | Current stacksize for task 9: unlimited
  | Current stacksize for task 10: unlimited
  | Current stacksize for task 11: unlimited
  | Current stacksize for task 12: unlimited
  | Current stacksize for task 13: unlimited
  | Current stacksize for task 14: unlimited
  | Current stacksize for task 15: unlimited
  | Current stacksize for task 16: unlimited
  | Current stacksize for task 17: unlimited
  | Current stacksize for task 18: unlimited
  | Current stacksize for task 19: unlimited
  | Current stacksize for task 20: unlimited
  | Current stacksize for task 21: unlimited
  | Current stacksize for task 22: unlimited
  | Current stacksize for task 23: unlimited
  | Current stacksize for task 24: unlimited
  | Current stacksize for task 25: unlimited
  | Current stacksize for task 26: unlimited
  | Current stacksize for task 27: unlimited
  | Current stacksize for task 28: unlimited
  | Current stacksize for task 29: unlimited
  | Current stacksize for task 30: unlimited
  | Current stacksize for task 31: unlimited
  | Current stacksize for task 32: unlimited
  | Current stacksize for task 33: unlimited
  | Current stacksize for task 34: unlimited
  | Current stacksize for task 35: unlimited
  | Current stacksize for task 36: unlimited
  | Current stacksize for task 37: unlimited
  | Current stacksize for task 38: unlimited
  | Current stacksize for task 39: unlimited
  | Current stacksize for task 40: unlimited
  | Current stacksize for task 41: unlimited
  | Current stacksize for task 42: unlimited
  | Current stacksize for task 43: unlimited
  | Current stacksize for task 44: unlimited
  | Current stacksize for task 45: unlimited
  | Current stacksize for task 46: unlimited
  | Current stacksize for task 47: unlimited
  | Current stacksize for task 48: unlimited
  | Current stacksize for task 49: unlimited
  | Current stacksize for task 50: unlimited
  | Current stacksize for task 51: unlimited
  | Current stacksize for task 52: unlimited
  | Current stacksize for task 53: unlimited
  | Current stacksize for task 54: unlimited
  | Current stacksize for task 55: unlimited
  | Current stacksize for task 56: unlimited
  | Current stacksize for task 57: unlimited
  | Current stacksize for task 58: unlimited
  | Current stacksize for task 59: unlimited
  | Current stacksize for task 60: unlimited
  | Current stacksize for task 61: unlimited
  | Current stacksize for task 62: unlimited
  | Current stacksize for task 63: unlimited
  | Current stacksize for task 64: unlimited
  | Current stacksize for task 65: unlimited
  | Current stacksize for task 66: unlimited
  | Current stacksize for task 67: unlimited
  | Current stacksize for task 68: unlimited
  | Current stacksize for task 69: unlimited
  | Current stacksize for task 70: unlimited
  | Current stacksize for task 71: unlimited
  | Current stacksize for task 72: unlimited
  | Current stacksize for task 73: unlimited
  | Current stacksize for task 74: unlimited
  | Current stacksize for task 75: unlimited
  | Current stacksize for task 76: unlimited
  | Current stacksize for task 77: unlimited
  | Current stacksize for task 78: unlimited
  | Current stacksize for task 79: unlimited
  | Current stacksize for task 80: unlimited
  | Current stacksize for task 81: unlimited
  | Current stacksize for task 82: unlimited
  | Current stacksize for task 83: unlimited
  | Current stacksize for task 84: unlimited
  | Current stacksize for task 85: unlimited
  | Current stacksize for task 86: unlimited
  | Current stacksize for task 87: unlimited
  | Current stacksize for task 88: unlimited
  | Current stacksize for task 89: unlimited
  | Current stacksize for task 90: unlimited
  | Current stacksize for task 91: unlimited
  | Current stacksize for task 92: unlimited
  | Current stacksize for task 93: unlimited
  | Current stacksize for task 94: unlimited
  | Current stacksize for task 95: unlimited
  | Current stacksize for task 96: unlimited
  | Current stacksize for task 97: unlimited
  | Current stacksize for task 98: unlimited
  | Current stacksize for task 99: unlimited
  | Current stacksize for task 100: unlimited
  | Current stacksize for task 101: unlimited
  | Current stacksize for task 102: unlimited
  | Current stacksize for task 103: unlimited
  | Current stacksize for task 104: unlimited
  | Current stacksize for task 105: unlimited
  | Current stacksize for task 106: unlimited
  | Current stacksize for task 107: unlimited
  | Current stacksize for task 108: unlimited
  | Current stacksize for task 109: unlimited
  | Current stacksize for task 110: unlimited
  | Current stacksize for task 111: unlimited
  | Current stacksize for task 112: unlimited
  | Current stacksize for task 113: unlimited
  | Current stacksize for task 114: unlimited
  | Current stacksize for task 115: unlimited
  | Current stacksize for task 116: unlimited
  | Current stacksize for task 117: unlimited
  | Current stacksize for task 118: unlimited
  | Current stacksize for task 119: unlimited
  | Current stacksize for task 120: unlimited
  | Current stacksize for task 121: unlimited
  | Current stacksize for task 122: unlimited
  | Current stacksize for task 123: unlimited
  | Current stacksize for task 124: unlimited
  | Current stacksize for task 125: unlimited
  | Current stacksize for task 126: unlimited
  | Current stacksize for task 127: unlimited

  Consistency checks for the contents of control.in are next.

  MPI_IN_PLACE appears to work with this MPI implementation.
  | Keeping use_mpi_in_place .true. (see manual).
  Target number of points in a grid batch is not set. Defaulting to  100
  Method for grid partitioning is not set. Defaulting to parallel hash+maxmin partitioning.
  Batch size limit is not set. Defaulting to    200
  By default, will store active basis functions for each batch.
  If in need of memory, prune_basis_once .false. can be used to disable this option.
  communication_type for Hartree potential was not specified.
  Defaulting to calc_hartree .
  Pulay mixer: Number of initial linear mixing iterations not set.
  Defaulting to    0 iterations.
  Work space size for distributed Hartree potential not set.
  Defaulting to   0.200000E+03 MB.
  Mixing parameter for charge density mixing has not been set.
  Using default: charge_mix_param =     0.0500.
  The mixing parameter will be adjusted in iteration number     2 of each s.c.f. cycle (i.e., each geometry step).
  Algorithm-dependent basis array size parameters:
  | n_max_pulay                         :       10
  Maximum number of self-consistency iterations not provided.
  Presetting  1000 iterations.
  Presetting      1001 iterations before the initial mixing cycle
  is restarted anyway using the sc_init_iter criterion / keyword.
  Presetting a factor      1.000 between actual scf density residual
  and density convergence criterion sc_accuracy_rho below which sc_init_iter
  takes no effect.
 * No s.c.f. convergence criteria (sc_accuracy_*) were provided in control.in.
 * The run will proceed with a reasonable default guess, but please check whether.
 * the s.c.f. cycles seem to take too much or too little time.
  Calculation of forces was not defined in control.in. No forces will be calculated.
  Geometry relaxation not requested: no relaxation will be performed.
 * Notice: The s.c.f. convergence criterion sc_accuracy_rho was not provided.
 * We used to stop in this case, and ask the user to provide reasonable
 * scf convergence criteria. However, this led some users to employ criteria
 * that led to extremely long run times, e.g., for simple relaxation.
 * We now preset a default value for sc_accuracy_rho if it is not set.
 * You may still wish to check if this setting is too tight or too loose for your needs.
 * Based on n_atoms and forces and force-correction status, FHI-aims chose sc_accuracy_rho =  0.195959E-04 .
  No accuracy limit for integral partition fn. given. Defaulting to  0.1000E-14.
  No threshold value for u(r) in integrations given. Defaulting to  0.1000E-05.
  No accuracy for occupation numbers given. Defaulting to  0.1000E-12.
  No threshold value for occupation numbers given. Defaulting to  0.0000E+00.
  No accuracy for fermi level given. Defaulting to  0.1000E-19.
  Maximum # of iterations to find E_F not set. Defaulting to  200.
  Will not use alltoall communication since running on < 1024 CPUs.
  partition_type (choice of integration weights) for integrals was not specified.
  | Using a version of the partition function of Stratmann and coworkers ('stratmann_sparse').
  | At each grid point, the set of atoms used to build the partition table is smoothly restricted to
  | only those atoms whose free-atom density would be non-zero at that grid point.
  Partitioning for Hartree potential was not defined. Using partition_type for integrals.
  | Adjusted default value of keyword multip_moments_threshold to:       0.10000000E-11
  | This value may affect high angular momentum components of the Hartree potential in periodic systems.
  Spin handling was not defined in control.in. Defaulting to unpolarized case.
  No q(lm)/r^(l+1) cutoff set for long-range Hartree potential.
  | Using default value of  0.100000E-09 .
  | Verify using the multipole_threshold keyword.
  Defaulting to new monopole extrapolation.
  Density update method: density matrix based density update selected.
  Scalapack and density-matrix based density update required:
  Switching to packed matrix format "index" by default.
  Charge integration errors on the 3D integration grid will be compensated
  by explicit normalization and distribution of residual charges.
  Use the "compensate_multipole_errors" flag to change this behaviour.
  Found no potential conflicts with setting 'use_local_index' for this calculation.
  Flag 'use_local_index' has not been set.
  Testing whether we classify this calculation as large-scale ...
  The calculation contains less than 100 atoms. This is most likely not a large-scale calculation.
  Not setting 'use_local_index'.

  Consistency checks for the contents of geometry.in are next.

  Number of empty states per atom not set in control.in - providing a guess from actual geometry.
  | Total number of empty states used during s.c.f. cycle:       72
  If you use a very high smearing, use empty_states (per atom!) in control.in to increase this value.

  Structure-dependent array size parameters: 
  | Maximum number of distinct radial functions  :       64
  | Maximum number of basis functions            :     2496
  | Number of Kohn-Sham states (occupied + empty):      122
------------------------------------------------------------
  After read_input_data [GB]:    232.38

  Performing system and environment tests:
  | Environment variable OMP_NUM_THREADS correctly set to 1.
  | Checking for ScaLAPACK...
  | Testing pdtran()...
  | All pdtran() tests passed.
  After prepare_system [GB]:    232.25

------------------------------------------------------------
          Preparing all fixed parts of the calculation.
------------------------------------------------------------
  Determining machine precision:
     2.2250738585072014E-308
  Setting up grids for atomic and cluster calculations.

  Creating wave function, potential, and density for free atoms.
  Runtime choices for atomic solver:
  | atomic solver xc        : PBE
  | compute density gradient: 1
  | compute kinetic density : F

  Species: O

  List of occupied orbitals and eigenvalues:
    n    l              occ      energy [Ha]    energy [eV]
    1    0           2.0000       -18.927378      -515.0401
    2    0           2.0000        -0.880539       -23.9607
    2    1           4.0000        -0.331811        -9.0290


  Species: H

  List of occupied orbitals and eigenvalues:
    n    l              occ      energy [Ha]    energy [eV]
    1    0           1.0000        -0.238386        -6.4868


  Species: C

  List of occupied orbitals and eigenvalues:
    n    l              occ      energy [Ha]    energy [eV]
    1    0           2.0000       -10.049212      -273.4530
    2    0           2.0000        -0.504761       -13.7352
    2    1           2.0000        -0.193631        -5.2690


  Adding cutoff potential to free-atom effective potential.
  Creating fixed part of basis set: Ionic, confined, hydrogenic.

  O                    hydrogenic:

  List of hydrogenic basis orbitals: 
    n    l      effective z      eigenvalue [eV]  inner max. [A]     outer max. [A]     outer radius [A]   
    1    0         2.094699       -59.6986           0.252574           0.252574           4.413171
    1    0         3.536189      -170.1342           0.149311           0.149311           2.673448
    1    0         5.969657      -484.8635           0.088266           0.088266           1.619544
    1    0        10.077743     -1381.8065           0.052821           0.052821           0.969180
    2    1         2.208370       -16.5876           0.957404           0.957404           5.366593
    2    1         3.617676       -44.5164           0.587118           0.587118           5.048385
    2    1         5.926352      -119.4636           0.355670           0.355670           3.629133
    2    1         9.708345      -320.5908           0.218111           0.218111           2.252903
    3    2         7.122029       -76.6806           0.671626           0.671626           4.807458
    3    2         9.466918      -135.4863           0.500848           0.500848           3.811008
    3    2        12.583848      -239.3895           0.378088           0.378088           2.912303
    3    2        16.727011      -422.9751           0.285417           0.285417           2.198487
    4    3        12.999155      -143.6915           0.647440           0.647440           4.051222
    4    3        15.673591      -208.8996           0.538966           0.538966           3.372465
    4    3        18.898263      -303.6998           0.448665           0.448665           2.807429
    5    4        21.037388      -240.8598           0.631802           0.631802           3.413946
    5    4        24.092999      -315.9093           0.552306           0.552306           2.984386
    6    5        30.609779      -354.1103           0.624125           0.624125           3.021094
    1    0        16.830504     -3854.0284           0.031609           0.031609           0.587118
    1    0        24.698762     -8299.8649           0.021376           0.021376           0.406863
    2    1        12.012456      -490.8223           0.177182           0.177182           1.830144


  H                    hydrogenic:

  List of hydrogenic basis orbitals: 
    n    l      effective z      eigenvalue [eV]  inner max. [A]     outer max. [A]     outer radius [A]   
    1    0         1.117796       -16.9998           0.471713           0.471713           5.243229
    1    0         1.560469       -33.1307           0.339100           0.339100           4.993004
    1    0         2.178453       -64.5680           0.243769           0.243769           4.259334
    1    0         3.041173      -125.8354           0.173109           0.173109           3.099570
    2    1         2.805454       -26.7711           0.750636           0.750636           5.243229
    2    1         3.986533       -54.0569           0.533053           0.533053           4.932336
    2    1         5.664838      -109.1530           0.373940           0.373940           3.815562
    2    1         8.049700      -220.4043           0.262322           0.262322           2.709566
    3    2         5.999621       -54.4159           0.797950           0.797950           5.054418
    3    2         7.923827       -94.9179           0.602369           0.602369           4.527807
    3    2        10.465166      -165.5657           0.454726           0.454726           3.460068
    4    3        10.683842       -97.0634           0.788254           0.788254           4.754720
    4    3        13.307154      -150.5813           0.632557           0.632557           3.958095
    5    4        16.734816      -152.4132           0.788254           0.788254           4.259334
    1    0         4.245551      -245.2385           0.124443           0.124443           2.255595


  C                    hydrogenic:

  List of hydrogenic basis orbitals: 
    n    l      effective z      eigenvalue [eV]  inner max. [A]     outer max. [A]     outer radius [A]   
    1    0         1.622655       -35.8239           0.324638           0.324638           4.958612
    1    0         3.227401      -141.7185           0.163712           0.163712           2.931316
    1    0         6.419181      -560.6346           0.082559           0.082559           1.496423
    1    0        12.767515     -2217.8561           0.041634           0.041634           0.773313
    2    1         2.417147       -19.8729           0.873872           0.873872           5.335997
    2    1         4.104363       -57.2997           0.516595           0.516595           4.838844
    2    1         6.969288      -165.2105           0.305389           0.305389           3.116082
    2    1        11.833988      -476.3464           0.178339           0.178339           1.864750
    3    2         5.110612       -39.4842           0.928953           0.928953           5.207114
    3    2         6.861049       -71.1638           0.692743           0.692743           4.898362
    3    2         9.211029      -128.2609           0.516595           0.516595           3.930832
    3    2        12.365902      -231.1691           0.385237           0.385237           2.931316
    4    3        10.518516       -94.0827           0.802200           0.802200           4.780049
    4    3        11.504441      -112.5464           0.736407           0.736407           4.551928
    4    3        12.582780      -134.6337           0.676011           0.676011           4.178599
    5    4        16.246179      -143.6426           0.812068           0.812068           4.388011
    5    4        16.791728      -153.4516           0.792453           0.792453           4.282025
    6    5        22.554400      -192.2564           0.842403           0.842403           4.077671
    1    0        15.611419     -3315.9305           0.033821           0.033821           0.635927
    1    0        29.661599    -11970.4306           0.017911           0.017911           0.340907
    2    1        10.714335      -390.4731           0.196662           0.196662           2.056339

  Creating atomic-like basis functions for current effective potential.

  Species O                   :

  List of atomic basis orbitals and eigenvalues:
    n    l      energy [Ha]    energy [eV]    outer radius [A]
    1    0       -18.927378      -515.0401       1.415765
    2    0        -0.880539       -23.9607       5.048385
    2    1        -0.331811        -9.0290       5.301386


  Species H                   :

  List of atomic basis orbitals and eigenvalues:
    n    l      energy [Ha]    energy [eV]    outer radius [A]
    1    0        -0.238386        -6.4868       5.373006


  Species C                   :

  List of atomic basis orbitals and eigenvalues:
    n    l      energy [Ha]    energy [eV]    outer radius [A]
    1    0       -10.049212      -273.4530       1.934409
    2    0        -0.504761       -13.7352       5.271162
    2    1        -0.193631        -5.2690       5.401630

  Assembling full basis from fixed parts.
  | Species O :   atomic orbital   1 s accepted.
  | Species O :   atomic orbital   2 s accepted.
  | Species O :    hydro orbital   1 s accepted.
  | Species O :    hydro orbital   1 s accepted.
  | Species O :    hydro orbital   1 s accepted.
  | Species O :    hydro orbital   1 s accepted.
  | Species O :    hydro orbital   1 s accepted.
  | Species O :    hydro orbital   1 s accepted.
  | Species O :   atomic orbital   2 p accepted.
  | Species O :    hydro orbital   2 p accepted.
  | Species O :    hydro orbital   2 p accepted.
  | Species O :    hydro orbital   2 p accepted.
  | Species O :    hydro orbital   2 p accepted.
  | Species O :    hydro orbital   2 p accepted.
  | Species O :    hydro orbital   3 d accepted.
  | Species O :    hydro orbital   3 d accepted.
  | Species O :    hydro orbital   3 d accepted.
  | Species O :    hydro orbital   3 d accepted.
  | Species O :    hydro orbital   4 f accepted.
  | Species O :    hydro orbital   4 f accepted.
  | Species O :    hydro orbital   4 f accepted.
  | Species O :    hydro orbital   5 g accepted.
  | Species O :    hydro orbital   5 g accepted.
  | Species O :    hydro orbital   6 h accepted.
  | Species H :   atomic orbital   1 s accepted.
  | Species H :    hydro orbital   1 s accepted.
  | Species H :    hydro orbital   1 s accepted.
  | Species H :    hydro orbital   1 s accepted.
  | Species H :    hydro orbital   1 s accepted.
  | Species H :    hydro orbital   1 s accepted.
  | Species H :    hydro orbital   2 p accepted.
  | Species H :    hydro orbital   2 p accepted.
  | Species H :    hydro orbital   2 p accepted.
  | Species H :    hydro orbital   2 p accepted.
  | Species H :    hydro orbital   3 d accepted.
  | Species H :    hydro orbital   3 d accepted.
  | Species H :    hydro orbital   3 d accepted.
  | Species H :    hydro orbital   4 f accepted.
  | Species H :    hydro orbital   4 f accepted.
  | Species H :    hydro orbital   5 g accepted.
  | Species C :   atomic orbital   1 s accepted.
  | Species C :   atomic orbital   2 s accepted.
  | Species C :    hydro orbital   1 s accepted.
  | Species C :    hydro orbital   1 s accepted.
  | Species C :    hydro orbital   1 s accepted.
  | Species C :    hydro orbital   1 s accepted.
  | Species C :    hydro orbital   1 s accepted.
  | Species C :    hydro orbital   1 s accepted.
  | Species C :   atomic orbital   2 p accepted.
  | Species C :    hydro orbital   2 p accepted.
  | Species C :    hydro orbital   2 p accepted.
  | Species C :    hydro orbital   2 p accepted.
  | Species C :    hydro orbital   2 p accepted.
  | Species C :    hydro orbital   2 p accepted.
  | Species C :    hydro orbital   3 d accepted.
  | Species C :    hydro orbital   3 d accepted.
  | Species C :    hydro orbital   3 d accepted.
  | Species C :    hydro orbital   3 d accepted.
  | Species C :    hydro orbital   4 f accepted.
  | Species C :    hydro orbital   4 f accepted.
  | Species C :    hydro orbital   4 f accepted.
  | Species C :    hydro orbital   5 g accepted.
  | Species C :    hydro orbital   5 g accepted.
  | Species C :    hydro orbital   6 h accepted.

  Basis size parameters after reduction:
  | Total number of radial functions:       64
  | Total number of basis functions :     2496

  Per-task memory consumption for arrays in subroutine allocate_ext:
  |          21.378888MB.
  Testing on-site integration grid accuracy.
  |  Species  Function  <phi|h_atom|phi> (log., in eV)  <phi|h_atom|phi> (rad., in eV)
           1        1               -515.0401491148               -515.0401445497
           1        2                -23.9606901999                -23.9606901323
           1        3                165.1729447456                165.1747548103
           1        4                165.3413295162                165.3418605055
           1        5               1274.6614813478               1274.6692780328
           1        6               1753.8909179279               1753.3948354599 ***
           1        7              10212.0760798394              10210.2429518667 ***
           1        8              22118.3752034102              22121.3411925955 ***
           1        9                 -9.0290718243                 -9.0290720379
           1       10                 13.5470083352                 13.5470008159
           1       11                 70.5979983317                 70.5979854610
           1       12                296.1657342857                296.1657163656
           1       13               1358.1444953256               1358.1453914756
           1       14                424.8064049309                424.8075428608
           1       15                 40.3562954574                 40.3562954944
           1       16                116.7578832175                116.7578833711
           1       17                277.2942271424                277.2942269087
           1       18                594.6087081272                594.6087064374
           1       19                106.7435995862                106.7435996067
           1       20                221.3470414541                221.3470413769
           1       21                405.2600750576                405.2600736331
           1       22                201.9757367338                201.9757366737
           1       23                355.8511649537                355.8511644230
           1       24                314.9631111981                314.9631109382
           2       25                 -6.4870767962                 -6.4871688290
           2       26                  6.6883525158                  6.6862513096
           2       27                 50.0358975833                 50.0316128563
           2       28                145.8049185373                145.7971430134
           2       29                348.5127297185                348.5059852452
           2       30                778.8127355724                778.8279483151
           2       31                 14.7062392500                 14.7062366041
           2       32                 62.3249889862                 62.3249736220
           2       33                173.0626685455                173.0626287761
           2       34                416.4394963307                416.4394314577
           2       35                 43.3562450454                 43.3562450119
           2       36                116.6730583050                116.6730581007
           2       37                256.5258547444                256.5258535831
           2       38                 86.0596872899                 86.0596872392
           2       39                186.2313567580                186.2313565023
           2       40                141.4191171297                141.4191169693
           3       41               -273.4529725981               -273.4529710451
           3       42                -13.7352530191                -13.7352524550
           3       43                 85.8872304684                 85.8878353528
           3       44                230.6643622241                230.6651659777
           3       45                347.9337092204                347.9193765883
           3       46               3949.2622687737               3949.2496874562
           3       47               8939.5169575013               8941.1083508888 ***
           3       48              28506.2490304103              28513.9693286544 ***
           3       49                 -5.2694407727                 -5.2694065285
           3       50                 30.3382589235                 30.3385346478
           3       51                 29.8333995540                 29.8356722033
           3       52                 95.1290351873                 95.1327799781
           3       53                540.1524799073                540.1531695436
           3       54                833.3693403403                833.3713226214
           3       55                 19.6544900006                 19.6544901090
           3       56                 60.7239069750                 60.7239073856
           3       57                148.0487274748                148.0487280807
           3       58                322.5872028058                322.5872049794
           3       59                 68.4890316234                 68.4890316181
           3       60                123.9508617400                123.9508613230
           3       61                195.2498226469                195.2498206201
           3       62                119.0100550121                119.0100549936
           3       63                178.1608786105                178.1608779743
           3       64                169.5878055318                169.5878054391
 * Note: Onsite integrals marked "***" above are less accurate than
 * onsite_accuracy_threshold =    0.03000 eV. Usually, this is harmless.
 * When in doubt, tighten the "radial" and/or "radial_multiplier" flags to check.

  Task       0:*** pseudo_inverse, for evaluate_coeff_d: error of  2.97E-13; eps:  1.00E-15
  Preparing densities etc. for the partition functions (integrals / Hartree potential).

  Preparations completed.
  max(cpu_time)          :      0.363 s.
  Wall clock time (cpu1) :      0.448 s.
------------------------------------------------------------
  After prepare_scf [GB]:    225.12

  Initializing index lists of integration centers etc. from given atomic structure:
  | Number of centers in hartree potential         :        36
  | Number of centers in hartree multipole         :        36
  | Number of centers in electron density summation:        36
  | Number of centers in basis integrals           :        36
  | Number of centers in integrals                 :        36
  | Number of centers in hamiltonian               :        36
  After initialize_bc_dependent_lists [GB]:    225.11

  Initializing index lists of integration centers etc. from given atomic structure:
  | Number of centers in hartree potential         :        36
  | Number of centers in hartree multipole         :        36
  | Number of centers in electron density summation:        36
  | Number of centers in basis integrals           :        36
  | Number of centers in integrals                 :        36
  | Number of centers in hamiltonian               :        36

------------------------------------------------------------
          Begin self-consistency loop: Initialization.

          Date     :  20250713, Time     :  224018.403
------------------------------------------------------------
  Available memory per node after initialize_hartree_non_periodic_ewald [GB]:    225.11
  Available memory per node after initialize_recip_hartree_potential [GB]:    225.11
  * Using 128 tasks for Scalapack Eigenvalue solver.
  Detailed listing of tasks and assigned k-points:
  (for non-periodic systems, the "k-point" denotes an internal label only)
   Task     0 k-point     1 on nid001816
   Task     1 k-point     1 on nid001816
   Task     2 k-point     1 on nid001816
   Task     3 k-point     1 on nid001816
   Task     4 k-point     1 on nid001816
   Task     5 k-point     1 on nid001816
   Task     6 k-point     1 on nid001816
   Task     7 k-point     1 on nid001816
   Task     8 k-point     1 on nid001816
   Task     9 k-point     1 on nid001816
   Task    10 k-point     1 on nid001816
   Task    11 k-point     1 on nid001816
   Task    12 k-point     1 on nid001816
   Task    13 k-point     1 on nid001816
   Task    14 k-point     1 on nid001816
   Task    15 k-point     1 on nid001816
   Task    16 k-point     1 on nid001816
   Task    17 k-point     1 on nid001816
   Task    18 k-point     1 on nid001816
   Task    19 k-point     1 on nid001816
   Task    20 k-point     1 on nid001816
   Task    21 k-point     1 on nid001816
   Task    22 k-point     1 on nid001816
   Task    23 k-point     1 on nid001816
   Task    24 k-point     1 on nid001816
   Task    25 k-point     1 on nid001816
   Task    26 k-point     1 on nid001816
   Task    27 k-point     1 on nid001816
   Task    28 k-point     1 on nid001816
   Task    29 k-point     1 on nid001816
   Task    30 k-point     1 on nid001816
   Task    31 k-point     1 on nid001816
   Task    32 k-point     1 on nid001816
   Task    33 k-point     1 on nid001816
   Task    34 k-point     1 on nid001816
   Task    35 k-point     1 on nid001816
   Task    36 k-point     1 on nid001816
   Task    37 k-point     1 on nid001816
   Task    38 k-point     1 on nid001816
   Task    39 k-point     1 on nid001816
   Task    40 k-point     1 on nid001816
   Task    41 k-point     1 on nid001816
   Task    42 k-point     1 on nid001816
   Task    43 k-point     1 on nid001816
   Task    44 k-point     1 on nid001816
   Task    45 k-point     1 on nid001816
   Task    46 k-point     1 on nid001816
   Task    47 k-point     1 on nid001816
   Task    48 k-point     1 on nid001816
   Task    49 k-point     1 on nid001816
   Task    50 k-point     1 on nid001816
   Task    51 k-point     1 on nid001816
   Task    52 k-point     1 on nid001816
   Task    53 k-point     1 on nid001816
   Task    54 k-point     1 on nid001816
   Task    55 k-point     1 on nid001816
   Task    56 k-point     1 on nid001816
   Task    57 k-point     1 on nid001816
   Task    58 k-point     1 on nid001816
   Task    59 k-point     1 on nid001816
   Task    60 k-point     1 on nid001816
   Task    61 k-point     1 on nid001816
   Task    62 k-point     1 on nid001816
   Task    63 k-point     1 on nid001816
   Task    64 k-point     1 on nid001816
   Task    65 k-point     1 on nid001816
   Task    66 k-point     1 on nid001816
   Task    67 k-point     1 on nid001816
   Task    68 k-point     1 on nid001816
   Task    69 k-point     1 on nid001816
   Task    70 k-point     1 on nid001816
   Task    71 k-point     1 on nid001816
   Task    72 k-point     1 on nid001816
   Task    73 k-point     1 on nid001816
   Task    74 k-point     1 on nid001816
   Task    75 k-point     1 on nid001816
   Task    76 k-point     1 on nid001816
   Task    77 k-point     1 on nid001816
   Task    78 k-point     1 on nid001816
   Task    79 k-point     1 on nid001816
   Task    80 k-point     1 on nid001816
   Task    81 k-point     1 on nid001816
   Task    82 k-point     1 on nid001816
   Task    83 k-point     1 on nid001816
   Task    84 k-point     1 on nid001816
   Task    85 k-point     1 on nid001816
   Task    86 k-point     1 on nid001816
   Task    87 k-point     1 on nid001816
   Task    88 k-point     1 on nid001816
   Task    89 k-point     1 on nid001816
   Task    90 k-point     1 on nid001816
   Task    91 k-point     1 on nid001816
   Task    92 k-point     1 on nid001816
   Task    93 k-point     1 on nid001816
   Task    94 k-point     1 on nid001816
   Task    95 k-point     1 on nid001816
   Task    96 k-point     1 on nid001816
   Task    97 k-point     1 on nid001816
   Task    98 k-point     1 on nid001816
   Task    99 k-point     1 on nid001816
   Task   100 k-point     1 on nid001816
   Task   101 k-point     1 on nid001816
   Task   102 k-point     1 on nid001816
   Task   103 k-point     1 on nid001816
   Task   104 k-point     1 on nid001816
   Task   105 k-point     1 on nid001816
   Task   106 k-point     1 on nid001816
   Task   107 k-point     1 on nid001816
   Task   108 k-point     1 on nid001816
   Task   109 k-point     1 on nid001816
   Task   110 k-point     1 on nid001816
   Task   111 k-point     1 on nid001816
   Task   112 k-point     1 on nid001816
   Task   113 k-point     1 on nid001816
   Task   114 k-point     1 on nid001816
   Task   115 k-point     1 on nid001816
   Task   116 k-point     1 on nid001816
   Task   117 k-point     1 on nid001816
   Task   118 k-point     1 on nid001816
   Task   119 k-point     1 on nid001816
   Task   120 k-point     1 on nid001816
   Task   121 k-point     1 on nid001816
   Task   122 k-point     1 on nid001816
   Task   123 k-point     1 on nid001816
   Task   124 k-point     1 on nid001816
   Task   125 k-point     1 on nid001816
   Task   126 k-point     1 on nid001816
   Task   127 k-point     1 on nid001816
  Tasks:   128 split into     16 X      8 BLACS grid
  Calculating block size based on n_basis =         2496  max_nprow =           16  max_npcol =            8
  ScaLAPACK block size set to:           16
  Allocating        0.391 MB for ovlp
  Allocating        0.391 MB for ham
  Allocating        0.391 MB for eigenvec
  Required Scalapack workspace - INTEGER:            1  REAL:             1
  Available memory per node after initialize_scalapack [GB]:    225.11
  Available memory per node after aims_elsi_init_scf [GB]:    225.11
  Available memory per node after initialize_fixed_grids [GB]:    225.11
  Partitioning the integration grid into batches with parallel hashing+maxmin method.
  | Number of batches:     9707
  | Maximal batch size:     200
  | Minimal batch size:       1
  | Average batch size:      94.177
  | Standard deviation of batch sizes:      25.449

  Integration load balanced across   128 MPI tasks.
  Work distribution over tasks is as follows:
  Task     0 has       7064 integration points.
  Task     1 has       7091 integration points.
  Task     2 has       7176 integration points.
[...]
  Polynomial ifit point:               5
  Polynomial coeffs size:               5
  Polynomial coeffs:       0.521E-09
  Polynomial coeffs:               4
  Polynomial derivative coeffs:       0.100E-03
  Polynomial coeffs:               4
  Polynomial derivative coeffs:      -0.149E-03
  Polynomial coeffs:               4
  Polynomial derivative coeffs:       0.552E-08
  Polynomial coeffs:               4
  Polynomial derivative coeffs:       0.208E-08
  Final mu_opt value:       0.672E+00
  Cost function at iteration  25:  0.57576664E+02
  Convergence criteria at iteration   25:  0.77054340E-05
  LMO optimisation converged!
  Final cost function value:          57.57666432
  Evaluating Hirshfeld population matrix using the KS eigenstates.
  ------------------------------------------------------------
 Exporting DM for embedding
  Evaluating density matrix
      Allocating      0.410 MB for tmp
      Allocating      0.451 MB for tmp
      Deallocating tmp
      Deallocating tmp
  Finished density matrix calculation
  | Time :     0.004 s
 Exporting DM for embedding
  Evaluating density matrix
      Allocating      0.410 MB for tmp
      Allocating      0.451 MB for tmp
      Deallocating tmp
      Deallocating tmp
  Finished density matrix calculation
  | Time :     0.006 s
  Finished localisation of CMOs in           2.642 s

  ------------------------------------------------------------
            Completed Unitary Localisation of CMOs
  ------------------------------------------------------------

  Integrating Hamiltonian matrix: batch-based integration.
  Time summed over all CPUs for integration: real work      803.688 s, elapsed      846.389 s
          Integrate hamiltonian matrix - separate compo:  max(cpu_time)    wall_clock(cpu1)
          | Total time                                  :        6.817 s           6.807 s
  Writing Kohn-Sham eigenvalues.

  State    Occupation    Eigenvalue [Ha]    Eigenvalue [eV]
      1       2.00000         -18.782578         -511.09994
      2       2.00000         -18.775257         -510.90073
      3       2.00000          -9.939545         -270.46879
      4       2.00000          -9.930849         -270.23215
      5       2.00000          -9.891087         -269.15017
      6       2.00000          -9.890718         -269.14013
      7       2.00000          -9.889751         -269.11380
      8       2.00000          -9.886580         -269.02754
      9       2.00000          -9.885920         -269.00957
     10       2.00000          -9.883475         -268.94305
     11       2.00000          -9.881539         -268.89035
     12       2.00000          -9.878404         -268.80506
     13       2.00000          -0.937031          -25.49792
     14       2.00000          -0.933572          -25.40378
     15       2.00000          -0.733906          -19.97059
     16       2.00000          -0.728079          -19.81204
     17       2.00000          -0.681328          -18.53988
     18       2.00000          -0.674997          -18.36761
     19       2.00000          -0.609146          -16.57571
     20       2.00000          -0.602310          -16.38970
     21       2.00000          -0.538614          -14.65642
     22       2.00000          -0.533027          -14.50441
     23       2.00000          -0.521630          -14.19427
     24       2.00000          -0.515827          -14.03638
     25       2.00000          -0.463116          -12.60202
     26       2.00000          -0.457834          -12.45830
     27       2.00000          -0.438440          -11.93057
     28       2.00000          -0.433056          -11.78406
     29       2.00000          -0.404318          -11.00204
     30       2.00000          -0.399084          -10.85963
     31       2.00000          -0.383095          -10.42454
     32       2.00000          -0.377706          -10.27791
     33       2.00000          -0.373473          -10.16272
     34       2.00000          -0.369432          -10.05276
     35       2.00000          -0.353383           -9.61603
     36       2.00000          -0.348131           -9.47312
     37       2.00000          -0.335435           -9.12765
     38       2.00000          -0.330954           -9.00571
     39       2.00000          -0.303872           -8.26878
     40       2.00000          -0.300867           -8.18701
     41       2.00000          -0.299559           -8.15141
     42       2.00000          -0.295730           -8.04721
     43       2.00000          -0.294588           -8.01615
     44       2.00000          -0.290900           -7.91580
     45       2.00000          -0.284483           -7.74118
     46       2.00000          -0.279778           -7.61315
     47       2.00000          -0.279703           -7.61109
     48       2.00000          -0.270472           -7.35991
     49       2.00000          -0.231526           -6.30015
     50       2.00000          -0.221169           -6.01831
     51       0.00000          -0.025201           -0.68576
     52       0.00000          -0.005280           -0.14368
     53       0.00000          -0.003571           -0.09717
     54       0.00000           0.000109            0.00297
     55       0.00000           0.012376            0.33677
     56       0.00000           0.015005            0.40831
     57       0.00000           0.015469            0.42093
     58       0.00000           0.017896            0.48699
     59       0.00000           0.020614            0.56094
     60       0.00000           0.023251            0.63268
     61       0.00000           0.044790            1.21879
     62       0.00000           0.049383            1.34379
     63       0.00000           0.049731            1.35325
     64       0.00000           0.053693            1.46107
     65       0.00000           0.060739            1.65278
     66       0.00000           0.063985            1.74112
     67       0.00000           0.067888            1.84733
     68       0.00000           0.070888            1.92897
     69       0.00000           0.071520            1.94616
     70       0.00000           0.077362            2.10513
     71       0.00000           0.081726            2.22388
     72       0.00000           0.085896            2.33734
     73       0.00000           0.090703            2.46816
     74       0.00000           0.095087            2.58746
     75       0.00000           0.098147            2.67071
     76       0.00000           0.100338            2.73033
     77       0.00000           0.109645            2.98359
     78       0.00000           0.114233            3.10845
     79       0.00000           0.121243            3.29920
     80       0.00000           0.128264            3.49025
     81       0.00000           0.139416            3.79370
     82       0.00000           0.139700            3.80143
     83       0.00000           0.145264            3.95284
     84       0.00000           0.149205            4.06007
     85       0.00000           0.152239            4.14264
     86       0.00000           0.157495            4.28565
     87       0.00000           0.161321            4.38976
     88       0.00000           0.163951            4.46134
     89       0.00000           0.170103            4.62873
     90       0.00000           0.174695            4.75369
     91       0.00000           0.177236            4.82285
     92       0.00000           0.179231            4.87712
     93       0.00000           0.181750            4.94568
     94       0.00000           0.187328            5.09745
     95       0.00000           0.189475            5.15589
     96       0.00000           0.193578            5.26753
     97       0.00000           0.197833            5.38330
     98       0.00000           0.203899            5.54838
     99       0.00000           0.208889            5.68415
    100       0.00000           0.211235            5.74799
    101       0.00000           0.214005            5.82336
    102       0.00000           0.217571            5.92041
    103       0.00000           0.219889            5.98348
    104       0.00000           0.221182            6.01867
    105       0.00000           0.222867            6.06453
    106       0.00000           0.228083            6.20645
    107       0.00000           0.229140            6.23521
    108       0.00000           0.234480            6.38054
    109       0.00000           0.239170            6.50813
    110       0.00000           0.244163            6.64401
    111       0.00000           0.246256            6.70097
    112       0.00000           0.247667            6.73937
    113       0.00000           0.254157            6.91598
    114       0.00000           0.254618            6.92851
    115       0.00000           0.260768            7.09587
    116       0.00000           0.261417            7.11352
    117       0.00000           0.264826            7.20629
    118       0.00000           0.269725            7.33959
    119       0.00000           0.272143            7.40538
    120       0.00000           0.275822            7.50550
    121       0.00000           0.278878            7.58865
    122       0.00000           0.281609            7.66297

  Highest occupied state (VBM) at     -6.01830689 eV
  | Occupation number:      2.00000000

  Lowest unoccupied state (CBM) at    -0.68576267 eV
  | Occupation number:      0.00000000

  Overall HOMO-LUMO gap:      5.33254422 eV.

  | Chemical Potential                          :    -3.35203478 eV
  | Note that, for insulating systems, the printed 'chemical potential' value is not uniquely defined.
  | It can be anywhere in the energy gap, as long as it correctly separates occupied and unoccupied states.
  | In systems with a gap, the physically relevant chemical potential is the VBM or HOMO.

  Self-consistency cycle converged.


------------------------------------------------------------
  End self-consistency iteration #    14       :  max(cpu_time)    wall_clock(cpu1)
  | Time for this iteration                     :       12.620 s          12.665 s
  | Charge density update                       :        0.000 s           0.000 s
  | Density mixing                              :        0.059 s           0.008 s
  | Hartree multipole update                    :        0.006 s           0.006 s
  | Hartree multipole summation                 :        0.122 s           0.122 s
  | Integration                                 :        2.317 s           2.318 s
  | Solution of K.-S. eqns.                     :        0.354 s           0.353 s
  | Total energy evaluation                     :        0.000 s           0.001 s

  Partial memory accounting:
  | Current value for overall tracked memory usage:
  |   Minimum:       36.349 MB (on task 117)
  |   Maximum:       36.598 MB (on task  81)
  |   Average:       36.490 MB
  | Peak value for overall tracked memory usage:
  |   Minimum:      144.202 MB (on task  94 after allocating wave)
  |   Maximum:      168.105 MB (on task  60 after allocating wave)
  |   Average:      154.792 MB
  | Largest tracked array allocation so far:
  |   Minimum:       47.531 MB (dm_dump on task   0)
  |   Maximum:       47.531 MB (dm_dump on task   0)
  |   Average:       47.531 MB
  Note:  These values currently only include a subset of arrays which are explicitly tracked.
  The "true" memory usage will be greater.
------------------------------------------------------------

  Energy and forces in a compact form:
  | Total energy uncorrected      :         -0.148548930574383E+05 eV
  | Total energy corrected        :         -0.148548930574383E+05 eV  <-- do not rely on this value for anything but (periodic) metals
  | Electronic free energy        :         -0.148548930574383E+05 eV

  ------------------------------------ 
  Start decomposition of the XC Energy 
  ------------------------------------ 
  X and C from original XC functional choice 
  Hartree-Fock Energy :          0.000000000 Ha              0.000000000 eV
  X Energy            :        -76.550177570 Ha          -2083.036315412 eV
  C Energy            :         -3.244990748 Ha            -88.300690933 eV
  XC Energy w/o HF    :        -79.795168318 Ha          -2171.337006344 eV
  Total XC Energy     :        -79.795168318 Ha          -2171.337006344 eV
  ------------------------------------ 
  LDA X and C from self-consistent density 
  X Energy LDA        :        -69.357670959 Ha          -1887.318252491 eV
  C Energy LDA        :         -6.279237477 Ha           -170.866745341 eV
  ------------------------------------ 
  End decomposition of the XC Energy 
  ------------------------------------ 

------------------------------------------------------------
------------------------------------------------------------

------------------------------------------------------------------------------
  Final output of selected total energy values:

  The following output summarizes some interesting total energy values
  at the end of a run (AFTER all relaxation, molecular dynamics, etc.).

  | Total energy of the DFT / Hartree-Fock s.c.f. calculation      :         -14854.893057438 eV
  | Final zero-broadening corrected energy (caution - metals only) :         -14854.893057438 eV
  | For reference only, the value of 1 Hartree used in FHI-aims is :             27.211384500 eV

  Before relying on these values, please be sure to understand exactly which
  total energy value is referred to by a given number. Different objects may
  all carry the same name 'total energy'. Definitions:

  Total energy of the DFT / Hartree-Fock s.c.f. calculation:
  | Note that this energy does not include ANY quantities calculated after the
  | s.c.f. cycle, in particular not ANY RPA, MP2, etc. many-body perturbation terms.

  Final zero-broadening corrected energy:
  | For metallic systems only, a broadening of the occupation numbers at the Fermi
  | level can be extrapolated back to zero broadening by an electron-gas inspired
  | formula. For all systems that are not real metals, this value can be
  | meaningless and should be avoided.

------------------------------------------------------------------------------
  Methods described in the following list of references were used in this FHI-aims run.
  If you publish the results, please make sure to cite these reference if they apply.
  FHI-aims is an academic code, and for our developers (often, Ph.D. students
  and postdocs), scientific credit in the community is essential.
  Thank you for helping us!

  For any use of FHI-aims, please cite:

    Volker Blum, Ralf Gehrke, Felix Hanke, Paula Havu, Ville Havu,
    Xinguo Ren, Karsten Reuter, and Matthias Scheffler
    'Ab initio molecular simulations with numeric atom-centered orbitals'
    Computer Physics Communications 180, 2175-2196 (2009)
    http://doi.org/10.1016/j.cpc.2009.06.022


  For the NAO-VCC-nZ basis sets used in this calculation, please cite:

    Igor Ying Zhang, Xinguo Ren, Patrick Rinke, Volker Blum, and Matthias Scheffler
    'Numeric atom-centered-orbital basis sets with valence-correlation consistency from H to Ar'
    New Journal of Physics 15, 123033 (2013).
    http://doi.org/10.1088/1367-2630/15/12/123033


  The ELSI infrastructure was used in your run to solve the Kohn-Sham electronic structure.
  Please check out https://wordpress.elsi-interchange.org to learn more.
  If scalability is important for your project, please acknowledge ELSI by citing:

    V. W-z. Yu, F. Corsetti, A. Garcia, W. P. Huhn, M. Jacquelin, W. Jia,
    B. Lange, L. Lin, J. Lu, W. Mi, A. Seifitokaldani, A. Vazquez-Mayagoitia,
    C. Yang, H. Yang, and V. Blum
    'ELSI: A unified software interface for Kohn-Sham electronic structure solvers'
    Computer Physics Communications 222, 267-285 (2018).
    http://doi.org/10.1016/j.cpc.2017.09.007


  For the real-space grid partitioning and parallelization used in this calculation, please cite:

    Ville Havu, Volker Blum, Paula Havu, and Matthias Scheffler,
    'Efficient O(N) integration for all-electron electronic structure calculation'
    'using numerically tabulated basis functions'
    Journal of Computational Physics 228, 8367-8379 (2009).
    http://doi.org/10.1016/j.jcp.2009.08.008


  The high-level electronic structure method used in your calculation
  employed our efficient localized resolution of identity for the Coulomb operator.
  Some calculations, especially large-scale hybrid density functional theory,
  are only possible thanks to this development. For this feature, please cite:

    Arvid Ihrig, Juergen Wieferink, Igor Ying Zhang, Matti Ropo, Xinguo Ren,
    Patrick Rinke, Matthias Scheffler, and Volker Blum,
    'Accurate localized resolution of identity approach for linear-scaling
    hybrid density functionals and for many-body perturbation theory'
    New Journal of Physics 117, 093020 (2015).
    http://doi.org/10.1088/1367-2630/17/9/093020

  Of course, there are many other important community references, e.g., those cited in the
  above references. Our list is limited to references that describe implementations in the
  FHI-aims code. The reason is purely practical (length of this list) - please credit others as well.
------------------------------------------------------------
Warnings summary:

At least    2 warnings were raised during execution.

------------------------------------------------------------
          Leaving FHI-aims.
          Date     :  20250713, Time     :  224217.718

          Computational steps:
          | Number of self-consistency cycles          :           14
          | Number of SCF (re)initializations          :            1

          Detailed time accounting                     :  max(cpu_time)    wall_clock(cpu1)
          | Total time                                  :      119.767 s         120.972 s
          | Preparation time                            :        0.363 s           0.448 s
          | Boundary condition initalization            :        0.035 s           0.036 s
          | Grid partitioning                           :        1.084 s           1.094 s
          | Preloading free-atom quantities on grid     :        0.206 s           0.219 s
          | Free-atom superposition energy              :        0.019 s           0.019 s
          | Total time for integrations                 :       36.728 s          36.755 s
          | Total time for solution of K.-S. equations  :        5.620 s           5.634 s
          | Total time for density update               :       61.722 s          61.723 s
          | Total time for mixing                       :        0.699 s           0.085 s
          | Total time for Hartree multipole update     :        0.092 s           0.092 s
          | Total time for Hartree multipole sum        :        1.688 s           1.688 s
          | Total time for total energy evaluation      :        0.012 s           0.012 s
          | Total time for scaled ZORA corrections      :        0.000 s           0.000 s

          Partial memory accounting:
          | Residual value for overall tracked memory usage across tasks:     0.000000 MB (should be 0.000000 MB)
          | Peak values for overall tracked memory usage:
          |   Minimum:      144.202 MB (on task  94 after allocating wave)
          |   Maximum:      168.105 MB (on task  60 after allocating wave)
          |   Average:      154.792 MB
          | Largest tracked array allocation:
          |   Minimum:       47.531 MB (dm_dump on task   0)
          |   Maximum:       47.531 MB (dm_dump on task   0)
          |   Average:       47.531 MB
          Note:  These values currently only include a subset of arrays which are explicitly tracked.
          The "true" memory usage will be greater.

          Have a nice day.
------------------------------------------------------------
