------------------------------------------------------------
          Invoking FHI-aims ...

          When using FHI-aims, please cite the following reference:

            Volker Blum, Ralf Gehrke, Felix Hanke, Paula Havu,
            Ville Havu, Xinguo Ren, Karsten Reuter, and Matthias Scheffler,
            'Ab Initio Molecular Simulations with Numeric Atom-Centered Orbitals',
            Computer Physics Communications 180, 2175-2196 (2009)

          In addition, many other developments in FHI-aims are likely important for
          your particular application. If so, please cite them. A partial list of references
          is written at the end of this file. Thank you for giving credit to the authors
          of these developments.

          For general information about FHI-aims please find us at

            https://fhi-aims.org

          Online tutorials can be found at

            https://fhi-aims-club.gitlab.io/tutorials/tutorials-overview/

          For any questions about FHI-aims, please visit our slack channel at

            https://fhi-aims.slack.com

          and our main development and support site at

            https://aims-git.rz-berlin.mpg.de .

          The latter site, in particular, has a wiki to collect information, as well
          as an issue tracker to log discussions, suggest improvements, and report issues
          or bugs. https://aims-git.rz-berlin.mpg.de is also the main development site
          of the project and all new and updated code versions can be obtained there.
          Please send an email to aims-coordinators@fhi-berlin.mpg.de and we will add
          you to these sites. They are for you and everyone is welcome there.

------------------------------------------------------------



  Date     :  20250629, Time     :  112307.889
  Time zero on CPU 1             :   0.717148200000000E+01  s.
  Internal wall clock time zero  :           520428187.889  s.

  FHI-aims created a unique identifier for this run for later identification
  aims_uuid : 9D492D17-36D7-4147-A6BC-8478C83FA567

  Build configuration of the current instance of FHI-aims
  -------------------------------------------------------
  FHI-aims version      : 250403
  Commit number         : 316072d87
  CMake host system     : Linux-5.14.21-150400.24.46_12.0.70-cray_shasta_c
  CMake version         : 3.20.4
  Fortran compiler      : /opt/cray/pe/craype/2.7.19/bin/ftn (GNU) version 11.2.0
  Fortran compiler flags: -O2 -fPIC -fallow-argument-mismatch -ffree-line-length-none
  C compiler            : /opt/cray/pe/craype/2.7.19/bin/cc (GNU) version 11.2.0
  C compiler flags      : -O2
  C++ compiler          : /opt/cray/pe/gcc/11.2.0/bin/c++ (GNU) version 11.2.0
  C++ compiler flags    : -O2
  HIP compiler          :
  HIP compiler flags    :
  HIP GPU arch          :
  Using MPI
  Using ScaLAPACK
  Using LibXC
  Using i-PI
  Using RLSY
  Linking against:

  Using      256 parallel tasks.
  Task        0 on host nid001238 reporting.
  Task        1 on host nid001238 reporting.
  Task        2 on host nid001238 reporting.
  Task        3 on host nid001238 reporting.
  Task        4 on host nid001238 reporting.
  Task        5 on host nid001238 reporting.
  Task        6 on host nid001238 reporting.
  Task        7 on host nid001238 reporting.
  Task        8 on host nid001238 reporting.
  Task        9 on host nid001238 reporting.
  Task       10 on host nid001238 reporting.
  Task       11 on host nid001238 reporting.
  Task       12 on host nid001238 reporting.
  Task       13 on host nid001238 reporting.
  Task       14 on host nid001238 reporting.
  Task       15 on host nid001238 reporting.
  Task       16 on host nid001238 reporting.
  Task       17 on host nid001238 reporting.
  Task       18 on host nid001238 reporting.
  Task       19 on host nid001238 reporting.
  Task       20 on host nid001238 reporting.
  Task       21 on host nid001238 reporting.
  Task       22 on host nid001238 reporting.
  Task       23 on host nid001238 reporting.
  Task       24 on host nid001238 reporting.
  Task       25 on host nid001238 reporting.
  Task       26 on host nid001238 reporting.
  Task       27 on host nid001238 reporting.
  Task       28 on host nid001238 reporting.
  Task       29 on host nid001238 reporting.
  Task       30 on host nid001238 reporting.
  Task       31 on host nid001238 reporting.
  Task       32 on host nid001238 reporting.
  Task       33 on host nid001238 reporting.
  Task       34 on host nid001238 reporting.
  Task       35 on host nid001238 reporting.
  Task       36 on host nid001238 reporting.
  Task       37 on host nid001238 reporting.
  Task       38 on host nid001238 reporting.
  Task       39 on host nid001238 reporting.
  Task       40 on host nid001238 reporting.
  Task       41 on host nid001238 reporting.
  Task       42 on host nid001238 reporting.
  Task       43 on host nid001238 reporting.
  Task       44 on host nid001238 reporting.
  Task       45 on host nid001238 reporting.
  Task       46 on host nid001238 reporting.
  Task       47 on host nid001238 reporting.
  Task       48 on host nid001238 reporting.
  Task       49 on host nid001238 reporting.
  Task       50 on host nid001238 reporting.
  Task       51 on host nid001238 reporting.
  Task       52 on host nid001238 reporting.
  Task       53 on host nid001238 reporting.
  Task       54 on host nid001238 reporting.
  Task       55 on host nid001238 reporting.
  Task       56 on host nid001238 reporting.
  Task       57 on host nid001238 reporting.
  Task       58 on host nid001238 reporting.
  Task       59 on host nid001238 reporting.
  Task       60 on host nid001238 reporting.
  Task       61 on host nid001238 reporting.
  Task       62 on host nid001238 reporting.
  Task       63 on host nid001238 reporting.
  Task       64 on host nid001238 reporting.
  Task       65 on host nid001238 reporting.
  Task       66 on host nid001238 reporting.
  Task       67 on host nid001238 reporting.
  Task       68 on host nid001238 reporting.
  Task       69 on host nid001238 reporting.
  Task       70 on host nid001238 reporting.
  Task       71 on host nid001238 reporting.
  Task       72 on host nid001238 reporting.
  Task       73 on host nid001238 reporting.
  Task       74 on host nid001238 reporting.
  Task       75 on host nid001238 reporting.
  Task       76 on host nid001238 reporting.
  Task       77 on host nid001238 reporting.
  Task       78 on host nid001238 reporting.
  Task       79 on host nid001238 reporting.
  Task       80 on host nid001238 reporting.
  Task       81 on host nid001238 reporting.
  Task       82 on host nid001238 reporting.
  Task       83 on host nid001238 reporting.
  Task       84 on host nid001238 reporting.
  Task       85 on host nid001238 reporting.
  Task       86 on host nid001238 reporting.
  Task       87 on host nid001238 reporting.
  Task       88 on host nid001238 reporting.
  Task       89 on host nid001238 reporting.
  Task       90 on host nid001238 reporting.
  Task       91 on host nid001238 reporting.
  Task       92 on host nid001238 reporting.
  Task       93 on host nid001238 reporting.
  Task       94 on host nid001238 reporting.
  Task       95 on host nid001238 reporting.
  Task       96 on host nid001238 reporting.
  Task       97 on host nid001238 reporting.
  Task       98 on host nid001238 reporting.
  Task       99 on host nid001238 reporting.
  Task      100 on host nid001238 reporting.
  Task      101 on host nid001238 reporting.
  Task      102 on host nid001238 reporting.
  Task      103 on host nid001238 reporting.
  Task      104 on host nid001238 reporting.
  Task      105 on host nid001238 reporting.
  Task      106 on host nid001238 reporting.
  Task      107 on host nid001238 reporting.
  Task      108 on host nid001238 reporting.
  Task      109 on host nid001238 reporting.
  Task      110 on host nid001238 reporting.
  Task      111 on host nid001238 reporting.
  Task      112 on host nid001238 reporting.
  Task      113 on host nid001238 reporting.
  Task      114 on host nid001238 reporting.
  Task      115 on host nid001238 reporting.
  Task      116 on host nid001238 reporting.
  Task      117 on host nid001238 reporting.
  Task      118 on host nid001238 reporting.
  Task      119 on host nid001238 reporting.
  Task      120 on host nid001238 reporting.
  Task      121 on host nid001238 reporting.
  Task      122 on host nid001238 reporting.
  Task      123 on host nid001238 reporting.
  Task      124 on host nid001238 reporting.
  Task      125 on host nid001238 reporting.
  Task      126 on host nid001238 reporting.
  Task      127 on host nid001238 reporting.
  Task      128 on host nid001239 reporting.
  Task      129 on host nid001239 reporting.
  Task      130 on host nid001239 reporting.
  Task      131 on host nid001239 reporting.
  Task      132 on host nid001239 reporting.
  Task      133 on host nid001239 reporting.
  Task      134 on host nid001239 reporting.
  Task      135 on host nid001239 reporting.
  Task      136 on host nid001239 reporting.
  Task      137 on host nid001239 reporting.
  Task      138 on host nid001239 reporting.
  Task      139 on host nid001239 reporting.
  Task      140 on host nid001239 reporting.
  Task      141 on host nid001239 reporting.
  Task      142 on host nid001239 reporting.
  Task      143 on host nid001239 reporting.
  Task      144 on host nid001239 reporting.
  Task      145 on host nid001239 reporting.
  Task      146 on host nid001239 reporting.
  Task      147 on host nid001239 reporting.
  Task      148 on host nid001239 reporting.
  Task      149 on host nid001239 reporting.
  Task      150 on host nid001239 reporting.
  Task      151 on host nid001239 reporting.
  Task      152 on host nid001239 reporting.
  Task      153 on host nid001239 reporting.
  Task      154 on host nid001239 reporting.
  Task      155 on host nid001239 reporting.
  Task      156 on host nid001239 reporting.
  Task      157 on host nid001239 reporting.
  Task      158 on host nid001239 reporting.
  Task      159 on host nid001239 reporting.
  Task      160 on host nid001239 reporting.
  Task      161 on host nid001239 reporting.
  Task      162 on host nid001239 reporting.
  Task      163 on host nid001239 reporting.
  Task      164 on host nid001239 reporting.
  Task      165 on host nid001239 reporting.
  Task      166 on host nid001239 reporting.
  Task      167 on host nid001239 reporting.
  Task      168 on host nid001239 reporting.
  Task      169 on host nid001239 reporting.
  Task      170 on host nid001239 reporting.
  Task      171 on host nid001239 reporting.
  Task      172 on host nid001239 reporting.
  Task      173 on host nid001239 reporting.
  Task      174 on host nid001239 reporting.
  Task      175 on host nid001239 reporting.
  Task      176 on host nid001239 reporting.
  Task      177 on host nid001239 reporting.
  Task      178 on host nid001239 reporting.
  Task      179 on host nid001239 reporting.
  Task      180 on host nid001239 reporting.
  Task      181 on host nid001239 reporting.
  Task      182 on host nid001239 reporting.
  Task      183 on host nid001239 reporting.
  Task      184 on host nid001239 reporting.
  Task      185 on host nid001239 reporting.
  Task      186 on host nid001239 reporting.
  Task      187 on host nid001239 reporting.
  Task      188 on host nid001239 reporting.
  Task      189 on host nid001239 reporting.
  Task      190 on host nid001239 reporting.
  Task      191 on host nid001239 reporting.
  Task      192 on host nid001239 reporting.
  Task      193 on host nid001239 reporting.
  Task      194 on host nid001239 reporting.
  Task      195 on host nid001239 reporting.
  Task      196 on host nid001239 reporting.
  Task      197 on host nid001239 reporting.
  Task      198 on host nid001239 reporting.
  Task      199 on host nid001239 reporting.
  Task      200 on host nid001239 reporting.
  Task      201 on host nid001239 reporting.
  Task      202 on host nid001239 reporting.
  Task      203 on host nid001239 reporting.
  Task      204 on host nid001239 reporting.
  Task      205 on host nid001239 reporting.
  Task      206 on host nid001239 reporting.
  Task      207 on host nid001239 reporting.
  Task      208 on host nid001239 reporting.
  Task      209 on host nid001239 reporting.
  Task      210 on host nid001239 reporting.
  Task      211 on host nid001239 reporting.
  Task      212 on host nid001239 reporting.
  Task      213 on host nid001239 reporting.
  Task      214 on host nid001239 reporting.
  Task      215 on host nid001239 reporting.
  Task      216 on host nid001239 reporting.
  Task      217 on host nid001239 reporting.
  Task      218 on host nid001239 reporting.
  Task      219 on host nid001239 reporting.
  Task      220 on host nid001239 reporting.
  Task      221 on host nid001239 reporting.
  Task      222 on host nid001239 reporting.
  Task      223 on host nid001239 reporting.
  Task      224 on host nid001239 reporting.
  Task      225 on host nid001239 reporting.
  Task      226 on host nid001239 reporting.
  Task      227 on host nid001239 reporting.
  Task      228 on host nid001239 reporting.
  Task      229 on host nid001239 reporting.
  Task      230 on host nid001239 reporting.
  Task      231 on host nid001239 reporting.
  Task      232 on host nid001239 reporting.
  Task      233 on host nid001239 reporting.
  Task      234 on host nid001239 reporting.
  Task      235 on host nid001239 reporting.
  Task      236 on host nid001239 reporting.
  Task      237 on host nid001239 reporting.
  Task      238 on host nid001239 reporting.
  Task      239 on host nid001239 reporting.
  Task      240 on host nid001239 reporting.
  Task      241 on host nid001239 reporting.
  Task      242 on host nid001239 reporting.
  Task      243 on host nid001239 reporting.
  Task      244 on host nid001239 reporting.
  Task      245 on host nid001239 reporting.
  Task      246 on host nid001239 reporting.
  Task      247 on host nid001239 reporting.
  Task      248 on host nid001239 reporting.
  Task      249 on host nid001239 reporting.
  Task      250 on host nid001239 reporting.
  Task      251 on host nid001239 reporting.
  Task      252 on host nid001239 reporting.
  Task      253 on host nid001239 reporting.
  Task      254 on host nid001239 reporting.
  Task      255 on host nid001239 reporting.

  Obtaining array dimensions for all initial allocations:
  
  -----------------------------------------------------------------------
  Parsing control.in (first pass over file, find array dimensions only).
  The contents of control.in will be repeated verbatim below
  unless switched off by setting 'verbatim_writeout .false.' .
  in the first line of control.in .
  -----------------------------------------------------------------------
  
  #===============================================================================
  # Created using the Atomic Simulation Environment (ASE)
  
  # Sun Jun 29 11:23:04 2025
  
  #===============================================================================
  xc                                 PBE
  output_level                       full
  relativistic                       atomic_zora scalar
  occupation_type                    gaussian 0.01
  mixer                              pulay
  n_max_pulay                        10
  KS_method                          parallel
  RI_method                          LVL
  collect_eigenvectors               .true.
  density_update_method              density_matrix
  atomic_solver_xc                   PBE
  basis_threshold                    1e-05
  override_illconditioning           .true.
  override_initial_charge_check      .true.
  use_2d_corr                        .false.
  qm_embedding_mo_localise           .true.
  qm_embedding_calc                  1
  charge                             -0.0
  #===============================================================================
  
  ################################################################################
  #
  #  FHI-aims code project
  # Igor Ying Zhang and Xinguo Ren, Fritz Haber Institute Berlin, 2012
  #
  #  Suggested "NAO-VCC-3Z" defaults for O atom (to be pasted into control.in file)
  #
  #  Please cite:
  #
  #  Igor Ying Zhang, Xinguo Ren, Patrick Rinke, Volker Blum, and Matthias Scheffler,
  #  "Numeric atom-centered-orbital basis sets with valence-correlation consistency from H to Ar"
  #  New Journal of Physics 15, 123033 (2013).
  #  http://dx.doi.org/10.1088/1367-2630/15/12/123033
  #
  ################################################################################
    species        O
  #     set basis set reference for FHI-aims output
      cite_reference NAO-VCC-2013
  #     global species definitions
      nucleus             8
      mass                15.9994
  #
      l_hartree           6
  #
      cut_pot             4.0  2.0  1.0
      basis_dep_cutoff    0e-4
  #
      radial_base         36 7.0
      radial_multiplier   2
      angular_grids       specified
        division   0.1817   50
        division   0.3417  110
        division   0.4949  194
        division   0.6251  302
        division   0.8014  434
        division   0.8507  590
  #      division   0.8762  770
  #      division   0.9023  974
  #      division   1.2339 1202
  #      outer_grid 974
        outer_grid 770
  #      outer_grid  434
  ################################################################################
  #
  #  Definition of "minimal" basis
  #
  ################################################################################
  #     valence basis states
      valence      2  s   2.
      valence      2  p   4.
  #     ion occupancy
      ion_occ      2  s   1.
      ion_occ      2  p   3.
  ################################################################################
  
   basis_acc              1e-04
  #============================================
  # Optimization in      O for       NAO-VCC-3Z
  #============================================
  # (sp) correlation set
   hydro     1     s      1.84877109
   hydro     1     s      3.09577821
   hydro     2     p      2.44895734
   hydro     2     p      5.85722578
  # polarization set
   hydro     3     d      8.53701653
   hydro     3     d      8.96275978
   hydro     4     f     14.09619628
  # (sp) enhanced minimal basis
   hydro     1     s      3.62165559
   hydro     1     s      5.97272514
   hydro     2     p      6.29404180
  ################################################################################
  #
  #  FHI-aims code project
  # Igor Ying Zhang and Xinguo Ren, Fritz Haber Institute Berlin, 2012
  #
  #  Suggested "NAO-VCC-3Z" defaults for C atom (to be pasted into control.in file)
  #
  #  Please cite:
  #
  #  Igor Ying Zhang, Xinguo Ren, Patrick Rinke, Volker Blum, and Matthias Scheffler,
  #  "Numeric atom-centered-orbital basis sets with valence-correlation consistency from H to Ar"
  #  New Journal of Physics 15, 123033 (2013).
  #  http://dx.doi.org/10.1088/1367-2630/15/12/123033
  #
  ################################################################################
    species        C
  #     set basis set reference for FHI-aims output
      cite_reference NAO-VCC-2013
  #     global species definitions
      nucleus             6
      mass                12.0107
  #
      l_hartree           6
  #
      cut_pot             4.0  2.0  1.0
      basis_dep_cutoff    0e-4
  #
      radial_base         34 7.0
      radial_multiplier   2
      angular_grids       specified
        division   0.2187   50
        division   0.4416  110
        division   0.6335  194
        division   0.7727  302
        division   0.8772  434
        division   0.9334  590
  #      division   0.9924  770
  #      division   1.0230  974
  #      division   1.5020 1202
  #      outer_grid  974
        outer_grid  770
  #      outer_grid  434
  ################################################################################
  #
  #  Definition of "minimal" basis
  #
  ################################################################################
  #     valence basis states
      valence      2  s   2.
      valence      2  p   2.
  #     ion occupancy
      ion_occ      2  s   1.
      ion_occ      2  p   1.
  ################################################################################
  
   basis_acc              1e-04
  #============================================
  # Optimization in      C for       NAO-VCC-3Z
  #============================================
  # (sp) correlation set
   hydro     1     s      1.80690099
   hydro     1     s      3.25966754
   hydro     2     p      1.97404286
   hydro     2     p      3.16616778
  # polarization set
   hydro     3     d      5.89063938
   hydro     3     d      6.67716137
   hydro     4     f     10.14967498
  # (sp) enhanced minimal set
   hydro     1     s      6.77306992
   hydro     1     s     13.85913422
   hydro     2     p      3.64746093
  ################################################################################
  #
  #  FHI-aims code project
  #  Igor Ying Zhang and Xinguo Ren, Fritz Haber Institute Berlin, 2012
  #
  #  Suggested "NAO-VCC-3Z" defaults for H atom (to be pasted into control.in file)
  #
  #  Please cite:
  #
  #  Igor Ying Zhang, Xinguo Ren, Patrick Rinke, Volker Blum, and Matthias Scheffler,
  #  "Numeric atom-centered-orbital basis sets with valence-correlation consistency from H to Ar"
  #  New Journal of Physics 15, 123033 (2013).
  #  http://dx.doi.org/10.1088/1367-2630/15/12/123033
  #
  ################################################################################
    species        H
  #     set basis set reference for FHI-aims output
      cite_reference NAO-VCC-2013
  #     global species definitions
      nucleus             1
      mass                1.00794
  #
      l_hartree           6
  #
      cut_pot             4.0  2.0  1.0
      basis_dep_cutoff    0e-4
  #
      radial_base         24 7.0
      radial_multiplier   2
      angular_grids       specified
        division   0.1930   50
        division   0.3175  110
        division   0.4293  194
        division   0.5066  302
        division   0.5626  434
        division   0.5922  590
  #      division   0.6227  974
  #      division   0.6868 1202
        outer_grid  770
  #      outer_grid  434
  ################################################################################
  #
  #  Definition of "minimal" basis
  #
  ################################################################################
  #     valence basis states
      valence      1  s   1.
  #     ion occupancy
      ion_occ      1  s   0.5
  ################################################################################
  
  
   basis_acc              1e-04
  #============================================
  # Optimization in      H for       NAO-VCC-3Z
  #============================================
  # (sp) correlation set
   hydro     1     s      1.21957223
   hydro     1     s      1.79015338
   hydro     2     p      3.43862914
   hydro     2     p      3.48684723
  # polarization set
   hydro     3     d      6.20828695
  # (sp) enhanced minimal set
   hydro     1     s      2.62768292
  
  -----------------------------------------------------------------------
  Completed first pass over input file control.in .
  -----------------------------------------------------------------------
  
  
  -----------------------------------------------------------------------
  Parsing geometry.in (first pass over file, find array dimensions only).
  The contents of geometry.in will be repeated verbatim below
  unless switched off by setting 'verbatim_writeout .false.' .
  in the first line of geometry.in .
  -----------------------------------------------------------------------
  
  #===============================================================================
  # Created using the Atomic Simulation Environment (ASE)
  
  # Sun Jun 29 11:23:04 2025
  
  #=======================================================
  atom -2.7670653800000000 1.1279005000000000 -1.1191120299999999 O
  qm_embedding_region 1
  atom -1.5444534000000001 1.7249652499999999 -0.6899193400000000 C
  qm_embedding_region 1
  atom -1.4644931900000000 2.7461362199999999 -1.0917246700000001 H
  qm_embedding_region 1
  atom -1.5107331799999999 1.7637138900000000 0.4100582600000000 H
  qm_embedding_region 1
  atom -4.3595134599999996 -1.7049052300000000 1.4432162799999999 O
  qm_embedding_region 1
  atom -4.2734860000000001 -3.0275456400000000 0.9967403700000000 C
  qm_embedding_region 1
  atom -3.4920991400000001 1.7433143099999999 -0.9319371700000000 H
  qm_embedding_region 1
  atom -3.2297188399999999 -3.2888903300000001 0.7496481500000000 H
  qm_embedding_region 1
  atom -4.8928751699999999 -3.1732709600000000 0.0951177300000000 H
  qm_embedding_region 1
  atom -3.9924159399999999 -1.1090525200000001 0.7498436300000000 H
  qm_embedding_region 1
  atom 3.5849131000000001 0.8213808600000000 0.3170468800000000 H
  qm_embedding_region 2
  atom 2.1031380799999999 0.5876516000000001 -2.3661988400000000 H
  qm_embedding_region 2
  atom -0.3865624300000000 0.8796750500000000 -1.2069718199999999 C
  qm_embedding_region 2
  atom 3.6377615099999998 2.0733125000000001 -0.9381680100000001 H
  qm_embedding_region 2
  atom 1.9634080599999999 -0.5084470400000000 -0.9933684100000000 H
  qm_embedding_region 2
  atom 3.4849729100000002 1.0046227800000000 -0.7577424699999999 C
  qm_embedding_region 2
  atom -0.5136120300000000 -0.1639931100000000 -0.8814070200000000 H
  qm_embedding_region 2
  atom -0.3988824300000000 0.8752448300000000 -2.3074475600000000 H
  qm_embedding_region 2
  atom 0.9801377900000000 1.3572887600000001 0.3733752300000000 H
  qm_embedding_region 2
  atom 1.0979180700000000 2.4246229900000000 -1.0293893199999999 H
  qm_embedding_region 2
  atom -4.9447976200000001 -6.3895239899999998 2.8815860899999999 C
  qm_embedding_region 2
  atom -4.6845105499999997 -7.8507389900000000 2.5391040399999998 C
  qm_embedding_region 2
  atom -4.7738726199999997 -3.9732622100000001 2.0937187399999999 C
  qm_embedding_region 2
  atom -4.5689247899999996 -5.4397207300000003 1.7433153400000001 C
  qm_embedding_region 2
  atom -4.9300196999999999 -8.4848734300000004 3.3940723899999998 H
  qm_embedding_region 2
  atom -5.2952672999999999 -8.1754948600000006 1.6906695100000000 H
  qm_embedding_region 2
  atom -3.6319166200000002 -8.0147405999999997 2.2870404899999999 H
  qm_embedding_region 2
  atom -4.3709652500000002 -6.1047659400000001 3.7718493500000001 H
  qm_embedding_region 2
  atom -6.0040426199999999 -6.2421081999999997 3.1224893699999998 H
  qm_embedding_region 2
  atom 0.9699588700000000 1.3757317400000000 -0.7257752600000000 C
  qm_embedding_region 2
  atom 4.2836136900000001 0.4594529500000000 -1.2659361899999999 H
  qm_embedding_region 2
  atom 2.1277676599999999 0.5399186400000000 -1.2705134000000000 C
  qm_embedding_region 2
  atom -4.2535942499999999 -3.7521138500000002 3.0373312900000000 H
  qm_embedding_region 2
  atom -5.1672109199999996 -5.6798084500000003 0.8526411400000000 H
  qm_embedding_region 2
  atom -3.5150274399999999 -5.5961320199999998 1.4721294500000000 H
  qm_embedding_region 2
  atom -5.8461641899999996 -3.7893040700000000 2.2593167599999999 H
  qm_embedding_region 2
  
  -----------------------------------------------------------------------
  Completed first pass over input file geometry.in .
  -----------------------------------------------------------------------
  

  Basic array size parameters:
  | Number of species                 :        3
  | Number of atoms                   :       36
  | Max. basis fn. angular momentum   :        3
  | Max. atomic/ionic basis occupied n:        2
  | Max. number of basis fn. types    :        2
  | Max. radial fns per species/type  :       10
  | Max. logarithmic grid size        :     1301
  | Max. radial integration grid size :       73
  | Max. angular integration grid size:      770
  | Max. angular grid division number :        8
  | Radial grid for Hartree potential :     1301
  | Number of spin channels           :        1

  Definition of standardized fundamental physical constants in this FHI-aims run:
  | Using the set of values used in FHI-aims up to 2024, which combines values from
  | different CODATA sets - see constants.f90.
  | Use the 'codata' keyword in control.in to change this selection.

  Memory overcommitment is allowed on your operating system.

------------------------------------------------------------
          Reading file control.in.
------------------------------------------------------------
  XC: Using PBE gradient-corrected functionals.
  Requested output level: full
  Scalar relativistic treatment of kinetic energy: on-site free-atom approximation to ZORA.
  Occupation type: Gaussian broadening, width =   0.100000E-01 eV.
  Using pulay charge density mixing.
  Pulay mixing - number of memorized iterations:   10
  Kohn-Sham electronic structure solved by the ELSI library.
  The 'LVL' version of RI (resolution of identity) technique is used.
  ** This is a localized expansion of all basis function products.
     Its intended use are Hartree-Fock and hybrid functionals.
     For RPA, MP2, GW, etc., LVL is not yet as accurate. In those cases, check carefully.
  Atomic Solver XC: Using user-defined functional for generating the minimal NAO basis functions.
  Note that only the following functionals are available: kli, pz-lda, pw-lda, vwn, vwn-gauss, pw91_gga, pbe, rpbe, revpbe, pbeint, blyp.
  Threshold for basis singularities:  0.1000E-04
  override_illconditioning: Explicitly overriding any built-in checks for an ill-conditioned overlap matrix.
** WARNING:
  ***  If you use this flag, you should really know what you are doing.
** END OF WARNING
** WARNING:
  *** DO NOT keep this flag set by default in all your control.in files.
** END OF WARNING
  Old 1D distribution for correlation code.
  Charge =  -0.000000E+00: Neutral system requested explicitly.

  Reading configuration options for species O                   .
  | Found nuclear charge :   8.0000
  | Found atomic mass :    15.999400000000000      amu
  | Found l_max for Hartree potential  :   6
  | Found cutoff potl. onset [A], width [A], scale factor :    4.00000    2.00000    1.00000
  | Threshold for basis-dependent cutoff potential is   0.000000E+00
  | Found data for basic radial integration grid :    36 points, outermost radius =    7.000 A
  | Found multiplier for basic radial grid :   2
  | Found angular grid specification: user-specified.
  | Specified grid contains     7 separate shells.
  | Check grid settings after all constraints further below.
  | Found free-atom valence shell :  2 s   2.000
  | Found free-atom valence shell :  2 p   4.000
  | No ionic wave fns used. Skipping ion_occ.
  | No ionic wave fns used. Skipping ion_occ.
  | Found basis singularity cutoff : 0.1000E-03
  | Found hydrogenic basis function :  1 s   1.849
  | Found hydrogenic basis function :  1 s   3.096
  | Found hydrogenic basis function :  2 p   2.449
  | Found hydrogenic basis function :  2 p   5.857
  | Found hydrogenic basis function :  3 d   8.537
  | Found hydrogenic basis function :  3 d   8.963
  | Found hydrogenic basis function :  4 f  14.096
  | Found hydrogenic basis function :  1 s   3.622
  | Found hydrogenic basis function :  1 s   5.973
  | Found hydrogenic basis function :  2 p   6.294
 | Encountered keyword species, ending the description of species O                   .
  Species O                   : Missing cutoff potential type.
  Defaulting to exp(1/x)/(1-x)^2 type cutoff potential.
  Species O : No 'logarithmic' tag. Using default grid for free atom:
  | Default logarithmic grid data [bohr] : 0.1000E-03 0.1000E+03 0.1012E+01
  Species O                   : Using default innermost maximum threshold i_radial=  2 for radial functions.
  Species O                   : Default cutoff onset for free atom density etc. : 0.40000000E+01 AA.
  Species O                   : Basic radial grid will be enhanced according to radial_multiplier =   2, to contain    73 grid points.

  Reading configuration options for species C                   .
  | Found nuclear charge :   6.0000
  | Found atomic mass :    12.010700000000000      amu
  | Found l_max for Hartree potential  :   6
  | Found cutoff potl. onset [A], width [A], scale factor :    4.00000    2.00000    1.00000
  | Threshold for basis-dependent cutoff potential is   0.000000E+00
  | Found data for basic radial integration grid :    34 points, outermost radius =    7.000 A
  | Found multiplier for basic radial grid :   2
  | Found angular grid specification: user-specified.
  | Specified grid contains     7 separate shells.
  | Check grid settings after all constraints further below.
  | Found free-atom valence shell :  2 s   2.000
  | Found free-atom valence shell :  2 p   2.000
  | No ionic wave fns used. Skipping ion_occ.
  | No ionic wave fns used. Skipping ion_occ.
  | Found basis singularity cutoff : 0.1000E-03
  | Found hydrogenic basis function :  1 s   1.807
  | Found hydrogenic basis function :  1 s   3.260
  | Found hydrogenic basis function :  2 p   1.974
  | Found hydrogenic basis function :  2 p   3.166
  | Found hydrogenic basis function :  3 d   5.891
  | Found hydrogenic basis function :  3 d   6.677
  | Found hydrogenic basis function :  4 f  10.150
  | Found hydrogenic basis function :  1 s   6.773
  | Found hydrogenic basis function :  1 s  13.859
  | Found hydrogenic basis function :  2 p   3.647
 | Encountered keyword species, ending the description of species C                   .
  Species C                   : Missing cutoff potential type.
  Defaulting to exp(1/x)/(1-x)^2 type cutoff potential.
  Species C : No 'logarithmic' tag. Using default grid for free atom:
  | Default logarithmic grid data [bohr] : 0.1000E-03 0.1000E+03 0.1012E+01
  Species C                   : Using default innermost maximum threshold i_radial=  2 for radial functions.
  Species C                   : Default cutoff onset for free atom density etc. : 0.40000000E+01 AA.
  Species C                   : Basic radial grid will be enhanced according to radial_multiplier =   2, to contain    69 grid points.

  Reading configuration options for species H                   .
  | Found nuclear charge :   1.0000
  | Found atomic mass :    1.0079400000000001      amu
  | Found l_max for Hartree potential  :   6
  | Found cutoff potl. onset [A], width [A], scale factor :    4.00000    2.00000    1.00000
  | Threshold for basis-dependent cutoff potential is   0.000000E+00
  | Found data for basic radial integration grid :    24 points, outermost radius =    7.000 A
  | Found multiplier for basic radial grid :   2
  | Found angular grid specification: user-specified.
  | Specified grid contains     7 separate shells.
  | Check grid settings after all constraints further below.
  | Found free-atom valence shell :  1 s   1.000
  | No ionic wave fns used. Skipping ion_occ.
  | Found basis singularity cutoff : 0.1000E-03
  | Found hydrogenic basis function :  1 s   1.220
  | Found hydrogenic basis function :  1 s   1.790
  | Found hydrogenic basis function :  2 p   3.439
  | Found hydrogenic basis function :  2 p   3.487
  | Found hydrogenic basis function :  3 d   6.208
  | Found hydrogenic basis function :  1 s   2.628
  Species H                   : Missing cutoff potential type.
  Defaulting to exp(1/x)/(1-x)^2 type cutoff potential.
  Species H : No 'logarithmic' tag. Using default grid for free atom:
  | Default logarithmic grid data [bohr] : 0.1000E-03 0.1000E+03 0.1012E+01
  Species H                   : Using default innermost maximum threshold i_radial=  2 for radial functions.
  Species H                   : Default cutoff onset for free atom density etc. : 0.40000000E+01 AA.
  Species H                   : Basic radial grid will be enhanced according to radial_multiplier =   2, to contain    49 grid points.

  Finished reading input file 'control.in'.

------------------------------------------------------------


------------------------------------------------------------
          Reading geometry description geometry.in.
------------------------------------------------------------
  | The smallest distance between any two atoms is         0.96924844 AA.
  | The first atom of this pair is atom number                      1 .
  | The second atom of this pair is atom number                     7 .
  Input structure read successfully.
  The structure contains       36 atoms,  and a total of        100.000 electrons.

  Input geometry:
  | No unit cell requested.
  | Atomic structure:
  |       Atom                x [A]            y [A]            z [A]
  |    1: Species O            -2.76706538        1.12790050       -1.11911203
  |    2: Species C            -1.54445340        1.72496525       -0.68991934
  |    3: Species H            -1.46449319        2.74613622       -1.09172467
  |    4: Species H            -1.51073318        1.76371389        0.41005826
  |    5: Species O            -4.35951346       -1.70490523        1.44321628
  |    6: Species C            -4.27348600       -3.02754564        0.99674037
  |    7: Species H            -3.49209914        1.74331431       -0.93193717
  |    8: Species H            -3.22971884       -3.28889033        0.74964815
  |    9: Species H            -4.89287517       -3.17327096        0.09511773
  |   10: Species H            -3.99241594       -1.10905252        0.74984363
  |   11: Species H             3.58491310        0.82138086        0.31704688
  |   12: Species H             2.10313808        0.58765160       -2.36619884
  |   13: Species C            -0.38656243        0.87967505       -1.20697182
  |   14: Species H             3.63776151        2.07331250       -0.93816801
  |   15: Species H             1.96340806       -0.50844704       -0.99336841
  |   16: Species C             3.48497291        1.00462278       -0.75774247
  |   17: Species H            -0.51361203       -0.16399311       -0.88140702
  |   18: Species H            -0.39888243        0.87524483       -2.30744756
  |   19: Species H             0.98013779        1.35728876        0.37337523
  |   20: Species H             1.09791807        2.42462299       -1.02938932
  |   21: Species C            -4.94479762       -6.38952399        2.88158609
  |   22: Species C            -4.68451055       -7.85073899        2.53910404
  |   23: Species C            -4.77387262       -3.97326221        2.09371874
  |   24: Species C            -4.56892479       -5.43972073        1.74331534
  |   25: Species H            -4.93001970       -8.48487343        3.39407239
  |   26: Species H            -5.29526730       -8.17549486        1.69066951
  |   27: Species H            -3.63191662       -8.01474060        2.28704049
  |   28: Species H            -4.37096525       -6.10476594        3.77184935
  |   29: Species H            -6.00404262       -6.24210820        3.12248937
  |   30: Species C             0.96995887        1.37573174       -0.72577526
  |   31: Species H             4.28361369        0.45945295       -1.26593619
  |   32: Species C             2.12776766        0.53991864       -1.27051340
  |   33: Species H            -4.25359425       -3.75211385        3.03733129
  |   34: Species H            -5.16721092       -5.67980845        0.85264114
  |   35: Species H            -3.51502744       -5.59613202        1.47212945
  |   36: Species H            -5.84616419       -3.78930407        2.25931676

  Slab Identifier: This is not a periodic structure.

  Finished reading input file 'geometry.in'.



  Consistency checks for stacksize environment parameter are next.

  | Maximum stacksize for task 0: unlimited
  | Maximum stacksize for task 1: unlimited
  | Maximum stacksize for task 2: unlimited
  | Maximum stacksize for task 3: unlimited
  | Maximum stacksize for task 4: unlimited
  | Maximum stacksize for task 5: unlimited
  | Maximum stacksize for task 6: unlimited
  | Maximum stacksize for task 7: unlimited
  | Maximum stacksize for task 8: unlimited
  | Maximum stacksize for task 9: unlimited
  | Maximum stacksize for task 10: unlimited
  | Maximum stacksize for task 11: unlimited
  | Maximum stacksize for task 12: unlimited
  | Maximum stacksize for task 13: unlimited
  | Maximum stacksize for task 14: unlimited
  | Maximum stacksize for task 15: unlimited
  | Maximum stacksize for task 16: unlimited
  | Maximum stacksize for task 17: unlimited
  | Maximum stacksize for task 18: unlimited
  | Maximum stacksize for task 19: unlimited
  | Maximum stacksize for task 20: unlimited
  | Maximum stacksize for task 21: unlimited
  | Maximum stacksize for task 22: unlimited
  | Maximum stacksize for task 23: unlimited
  | Maximum stacksize for task 24: unlimited
  | Maximum stacksize for task 25: unlimited
  | Maximum stacksize for task 26: unlimited
  | Maximum stacksize for task 27: unlimited
  | Maximum stacksize for task 28: unlimited
  | Maximum stacksize for task 29: unlimited
  | Maximum stacksize for task 30: unlimited
  | Maximum stacksize for task 31: unlimited
  | Maximum stacksize for task 32: unlimited
  | Maximum stacksize for task 33: unlimited
  | Maximum stacksize for task 34: unlimited
  | Maximum stacksize for task 35: unlimited
  | Maximum stacksize for task 36: unlimited
  | Maximum stacksize for task 37: unlimited
  | Maximum stacksize for task 38: unlimited
  | Maximum stacksize for task 39: unlimited
  | Maximum stacksize for task 40: unlimited
  | Maximum stacksize for task 41: unlimited
  | Maximum stacksize for task 42: unlimited
  | Maximum stacksize for task 43: unlimited
  | Maximum stacksize for task 44: unlimited
  | Maximum stacksize for task 45: unlimited
  | Maximum stacksize for task 46: unlimited
  | Maximum stacksize for task 47: unlimited
  | Maximum stacksize for task 48: unlimited
  | Maximum stacksize for task 49: unlimited
  | Maximum stacksize for task 50: unlimited
  | Maximum stacksize for task 51: unlimited
  | Maximum stacksize for task 52: unlimited
  | Maximum stacksize for task 53: unlimited
  | Maximum stacksize for task 54: unlimited
  | Maximum stacksize for task 55: unlimited
  | Maximum stacksize for task 56: unlimited
  | Maximum stacksize for task 57: unlimited
  | Maximum stacksize for task 58: unlimited
  | Maximum stacksize for task 59: unlimited
  | Maximum stacksize for task 60: unlimited
  | Maximum stacksize for task 61: unlimited
  | Maximum stacksize for task 62: unlimited
  | Maximum stacksize for task 63: unlimited
  | Maximum stacksize for task 64: unlimited
  | Maximum stacksize for task 65: unlimited
  | Maximum stacksize for task 66: unlimited
  | Maximum stacksize for task 67: unlimited
  | Maximum stacksize for task 68: unlimited
  | Maximum stacksize for task 69: unlimited
  | Maximum stacksize for task 70: unlimited
  | Maximum stacksize for task 71: unlimited
  | Maximum stacksize for task 72: unlimited
  | Maximum stacksize for task 73: unlimited
  | Maximum stacksize for task 74: unlimited
  | Maximum stacksize for task 75: unlimited
  | Maximum stacksize for task 76: unlimited
  | Maximum stacksize for task 77: unlimited
  | Maximum stacksize for task 78: unlimited
  | Maximum stacksize for task 79: unlimited
  | Maximum stacksize for task 80: unlimited
  | Maximum stacksize for task 81: unlimited
  | Maximum stacksize for task 82: unlimited
  | Maximum stacksize for task 83: unlimited
  | Maximum stacksize for task 84: unlimited
  | Maximum stacksize for task 85: unlimited
  | Maximum stacksize for task 86: unlimited
  | Maximum stacksize for task 87: unlimited
  | Maximum stacksize for task 88: unlimited
  | Maximum stacksize for task 89: unlimited
  | Maximum stacksize for task 90: unlimited
  | Maximum stacksize for task 91: unlimited
  | Maximum stacksize for task 92: unlimited
  | Maximum stacksize for task 93: unlimited
  | Maximum stacksize for task 94: unlimited
  | Maximum stacksize for task 95: unlimited
  | Maximum stacksize for task 96: unlimited
  | Maximum stacksize for task 97: unlimited
  | Maximum stacksize for task 98: unlimited
  | Maximum stacksize for task 99: unlimited
  | Maximum stacksize for task 100: unlimited
  | Maximum stacksize for task 101: unlimited
  | Maximum stacksize for task 102: unlimited
  | Maximum stacksize for task 103: unlimited
  | Maximum stacksize for task 104: unlimited
  | Maximum stacksize for task 105: unlimited
  | Maximum stacksize for task 106: unlimited
  | Maximum stacksize for task 107: unlimited
  | Maximum stacksize for task 108: unlimited
  | Maximum stacksize for task 109: unlimited
  | Maximum stacksize for task 110: unlimited
  | Maximum stacksize for task 111: unlimited
  | Maximum stacksize for task 112: unlimited
  | Maximum stacksize for task 113: unlimited
  | Maximum stacksize for task 114: unlimited
  | Maximum stacksize for task 115: unlimited
  | Maximum stacksize for task 116: unlimited
  | Maximum stacksize for task 117: unlimited
  | Maximum stacksize for task 118: unlimited
  | Maximum stacksize for task 119: unlimited
  | Maximum stacksize for task 120: unlimited
  | Maximum stacksize for task 121: unlimited
  | Maximum stacksize for task 122: unlimited
  | Maximum stacksize for task 123: unlimited
  | Maximum stacksize for task 124: unlimited
  | Maximum stacksize for task 125: unlimited
  | Maximum stacksize for task 126: unlimited
  | Maximum stacksize for task 127: unlimited
  | Maximum stacksize for task 128: unlimited
  | Maximum stacksize for task 129: unlimited
  | Maximum stacksize for task 130: unlimited
  | Maximum stacksize for task 131: unlimited
  | Maximum stacksize for task 132: unlimited
  | Maximum stacksize for task 133: unlimited
  | Maximum stacksize for task 134: unlimited
  | Maximum stacksize for task 135: unlimited
  | Maximum stacksize for task 136: unlimited
  | Maximum stacksize for task 137: unlimited
  | Maximum stacksize for task 138: unlimited
  | Maximum stacksize for task 139: unlimited
  | Maximum stacksize for task 140: unlimited
  | Maximum stacksize for task 141: unlimited
  | Maximum stacksize for task 142: unlimited
  | Maximum stacksize for task 143: unlimited
  | Maximum stacksize for task 144: unlimited
  | Maximum stacksize for task 145: unlimited
  | Maximum stacksize for task 146: unlimited
  | Maximum stacksize for task 147: unlimited
  | Maximum stacksize for task 148: unlimited
  | Maximum stacksize for task 149: unlimited
  | Maximum stacksize for task 150: unlimited
  | Maximum stacksize for task 151: unlimited
  | Maximum stacksize for task 152: unlimited
  | Maximum stacksize for task 153: unlimited
  | Maximum stacksize for task 154: unlimited
  | Maximum stacksize for task 155: unlimited
  | Maximum stacksize for task 156: unlimited
  | Maximum stacksize for task 157: unlimited
  | Maximum stacksize for task 158: unlimited
  | Maximum stacksize for task 159: unlimited
  | Maximum stacksize for task 160: unlimited
  | Maximum stacksize for task 161: unlimited
  | Maximum stacksize for task 162: unlimited
  | Maximum stacksize for task 163: unlimited
  | Maximum stacksize for task 164: unlimited
  | Maximum stacksize for task 165: unlimited
  | Maximum stacksize for task 166: unlimited
  | Maximum stacksize for task 167: unlimited
  | Maximum stacksize for task 168: unlimited
  | Maximum stacksize for task 169: unlimited
  | Maximum stacksize for task 170: unlimited
  | Maximum stacksize for task 171: unlimited
  | Maximum stacksize for task 172: unlimited
  | Maximum stacksize for task 173: unlimited
  | Maximum stacksize for task 174: unlimited
  | Maximum stacksize for task 175: unlimited
  | Maximum stacksize for task 176: unlimited
  | Maximum stacksize for task 177: unlimited
  | Maximum stacksize for task 178: unlimited
  | Maximum stacksize for task 179: unlimited
  | Maximum stacksize for task 180: unlimited
  | Maximum stacksize for task 181: unlimited
  | Maximum stacksize for task 182: unlimited
  | Maximum stacksize for task 183: unlimited
  | Maximum stacksize for task 184: unlimited
  | Maximum stacksize for task 185: unlimited
  | Maximum stacksize for task 186: unlimited
  | Maximum stacksize for task 187: unlimited
  | Maximum stacksize for task 188: unlimited
  | Maximum stacksize for task 189: unlimited
  | Maximum stacksize for task 190: unlimited
  | Maximum stacksize for task 191: unlimited
  | Maximum stacksize for task 192: unlimited
  | Maximum stacksize for task 193: unlimited
  | Maximum stacksize for task 194: unlimited
  | Maximum stacksize for task 195: unlimited
  | Maximum stacksize for task 196: unlimited
  | Maximum stacksize for task 197: unlimited
  | Maximum stacksize for task 198: unlimited
  | Maximum stacksize for task 199: unlimited
  | Maximum stacksize for task 200: unlimited
  | Maximum stacksize for task 201: unlimited
  | Maximum stacksize for task 202: unlimited
  | Maximum stacksize for task 203: unlimited
  | Maximum stacksize for task 204: unlimited
  | Maximum stacksize for task 205: unlimited
  | Maximum stacksize for task 206: unlimited
  | Maximum stacksize for task 207: unlimited
  | Maximum stacksize for task 208: unlimited
  | Maximum stacksize for task 209: unlimited
  | Maximum stacksize for task 210: unlimited
  | Maximum stacksize for task 211: unlimited
  | Maximum stacksize for task 212: unlimited
  | Maximum stacksize for task 213: unlimited
  | Maximum stacksize for task 214: unlimited
  | Maximum stacksize for task 215: unlimited
  | Maximum stacksize for task 216: unlimited
  | Maximum stacksize for task 217: unlimited
  | Maximum stacksize for task 218: unlimited
  | Maximum stacksize for task 219: unlimited
  | Maximum stacksize for task 220: unlimited
  | Maximum stacksize for task 221: unlimited
  | Maximum stacksize for task 222: unlimited
  | Maximum stacksize for task 223: unlimited
  | Maximum stacksize for task 224: unlimited
  | Maximum stacksize for task 225: unlimited
  | Maximum stacksize for task 226: unlimited
  | Maximum stacksize for task 227: unlimited
  | Maximum stacksize for task 228: unlimited
  | Maximum stacksize for task 229: unlimited
  | Maximum stacksize for task 230: unlimited
  | Maximum stacksize for task 231: unlimited
  | Maximum stacksize for task 232: unlimited
  | Maximum stacksize for task 233: unlimited
  | Maximum stacksize for task 234: unlimited
  | Maximum stacksize for task 235: unlimited
  | Maximum stacksize for task 236: unlimited
  | Maximum stacksize for task 237: unlimited
  | Maximum stacksize for task 238: unlimited
  | Maximum stacksize for task 239: unlimited
  | Maximum stacksize for task 240: unlimited
  | Maximum stacksize for task 241: unlimited
  | Maximum stacksize for task 242: unlimited
  | Maximum stacksize for task 243: unlimited
  | Maximum stacksize for task 244: unlimited
  | Maximum stacksize for task 245: unlimited
  | Maximum stacksize for task 246: unlimited
  | Maximum stacksize for task 247: unlimited
  | Maximum stacksize for task 248: unlimited
  | Maximum stacksize for task 249: unlimited
  | Maximum stacksize for task 250: unlimited
  | Maximum stacksize for task 251: unlimited
  | Maximum stacksize for task 252: unlimited
  | Maximum stacksize for task 253: unlimited
  | Maximum stacksize for task 254: unlimited
  | Maximum stacksize for task 255: unlimited
  | Current stacksize for task 0: unlimited
  | Current stacksize for task 1: unlimited
  | Current stacksize for task 2: unlimited
  | Current stacksize for task 3: unlimited
  | Current stacksize for task 4: unlimited
  | Current stacksize for task 5: unlimited
  | Current stacksize for task 6: unlimited
  | Current stacksize for task 7: unlimited
  | Current stacksize for task 8: unlimited
  | Current stacksize for task 9: unlimited
  | Current stacksize for task 10: unlimited
  | Current stacksize for task 11: unlimited
  | Current stacksize for task 12: unlimited
  | Current stacksize for task 13: unlimited
  | Current stacksize for task 14: unlimited
  | Current stacksize for task 15: unlimited
  | Current stacksize for task 16: unlimited
  | Current stacksize for task 17: unlimited
  | Current stacksize for task 18: unlimited
  | Current stacksize for task 19: unlimited
  | Current stacksize for task 20: unlimited
  | Current stacksize for task 21: unlimited
  | Current stacksize for task 22: unlimited
  | Current stacksize for task 23: unlimited
  | Current stacksize for task 24: unlimited
  | Current stacksize for task 25: unlimited
  | Current stacksize for task 26: unlimited
  | Current stacksize for task 27: unlimited
  | Current stacksize for task 28: unlimited
  | Current stacksize for task 29: unlimited
  | Current stacksize for task 30: unlimited
  | Current stacksize for task 31: unlimited
  | Current stacksize for task 32: unlimited
  | Current stacksize for task 33: unlimited
  | Current stacksize for task 34: unlimited
  | Current stacksize for task 35: unlimited
  | Current stacksize for task 36: unlimited
  | Current stacksize for task 37: unlimited
  | Current stacksize for task 38: unlimited
  | Current stacksize for task 39: unlimited
  | Current stacksize for task 40: unlimited
  | Current stacksize for task 41: unlimited
  | Current stacksize for task 42: unlimited
  | Current stacksize for task 43: unlimited
  | Current stacksize for task 44: unlimited
  | Current stacksize for task 45: unlimited
  | Current stacksize for task 46: unlimited
  | Current stacksize for task 47: unlimited
  | Current stacksize for task 48: unlimited
  | Current stacksize for task 49: unlimited
  | Current stacksize for task 50: unlimited
  | Current stacksize for task 51: unlimited
  | Current stacksize for task 52: unlimited
  | Current stacksize for task 53: unlimited
  | Current stacksize for task 54: unlimited
  | Current stacksize for task 55: unlimited
  | Current stacksize for task 56: unlimited
  | Current stacksize for task 57: unlimited
  | Current stacksize for task 58: unlimited
  | Current stacksize for task 59: unlimited
  | Current stacksize for task 60: unlimited
  | Current stacksize for task 61: unlimited
  | Current stacksize for task 62: unlimited
  | Current stacksize for task 63: unlimited
  | Current stacksize for task 64: unlimited
  | Current stacksize for task 65: unlimited
  | Current stacksize for task 66: unlimited
  | Current stacksize for task 67: unlimited
  | Current stacksize for task 68: unlimited
  | Current stacksize for task 69: unlimited
  | Current stacksize for task 70: unlimited
  | Current stacksize for task 71: unlimited
  | Current stacksize for task 72: unlimited
  | Current stacksize for task 73: unlimited
  | Current stacksize for task 74: unlimited
  | Current stacksize for task 75: unlimited
  | Current stacksize for task 76: unlimited
  | Current stacksize for task 77: unlimited
  | Current stacksize for task 78: unlimited
  | Current stacksize for task 79: unlimited
  | Current stacksize for task 80: unlimited
  | Current stacksize for task 81: unlimited
  | Current stacksize for task 82: unlimited
  | Current stacksize for task 83: unlimited
  | Current stacksize for task 84: unlimited
  | Current stacksize for task 85: unlimited
  | Current stacksize for task 86: unlimited
  | Current stacksize for task 87: unlimited
  | Current stacksize for task 88: unlimited
  | Current stacksize for task 89: unlimited
  | Current stacksize for task 90: unlimited
  | Current stacksize for task 91: unlimited
  | Current stacksize for task 92: unlimited
  | Current stacksize for task 93: unlimited
  | Current stacksize for task 94: unlimited
  | Current stacksize for task 95: unlimited
  | Current stacksize for task 96: unlimited
  | Current stacksize for task 97: unlimited
  | Current stacksize for task 98: unlimited
  | Current stacksize for task 99: unlimited
  | Current stacksize for task 100: unlimited
  | Current stacksize for task 101: unlimited
  | Current stacksize for task 102: unlimited
  | Current stacksize for task 103: unlimited
  | Current stacksize for task 104: unlimited
  | Current stacksize for task 105: unlimited
  | Current stacksize for task 106: unlimited
  | Current stacksize for task 107: unlimited
  | Current stacksize for task 108: unlimited
  | Current stacksize for task 109: unlimited
  | Current stacksize for task 110: unlimited
  | Current stacksize for task 111: unlimited
  | Current stacksize for task 112: unlimited
  | Current stacksize for task 113: unlimited
  | Current stacksize for task 114: unlimited
  | Current stacksize for task 115: unlimited
  | Current stacksize for task 116: unlimited
  | Current stacksize for task 117: unlimited
  | Current stacksize for task 118: unlimited
  | Current stacksize for task 119: unlimited
  | Current stacksize for task 120: unlimited
  | Current stacksize for task 121: unlimited
  | Current stacksize for task 122: unlimited
  | Current stacksize for task 123: unlimited
  | Current stacksize for task 124: unlimited
  | Current stacksize for task 125: unlimited
  | Current stacksize for task 126: unlimited
  | Current stacksize for task 127: unlimited
  | Current stacksize for task 128: unlimited
  | Current stacksize for task 129: unlimited
  | Current stacksize for task 130: unlimited
  | Current stacksize for task 131: unlimited
  | Current stacksize for task 132: unlimited
  | Current stacksize for task 133: unlimited
  | Current stacksize for task 134: unlimited
  | Current stacksize for task 135: unlimited
  | Current stacksize for task 136: unlimited
  | Current stacksize for task 137: unlimited
  | Current stacksize for task 138: unlimited
  | Current stacksize for task 139: unlimited
  | Current stacksize for task 140: unlimited
  | Current stacksize for task 141: unlimited
  | Current stacksize for task 142: unlimited
  | Current stacksize for task 143: unlimited
  | Current stacksize for task 144: unlimited
  | Current stacksize for task 145: unlimited
  | Current stacksize for task 146: unlimited
  | Current stacksize for task 147: unlimited
  | Current stacksize for task 148: unlimited
  | Current stacksize for task 149: unlimited
  | Current stacksize for task 150: unlimited
  | Current stacksize for task 151: unlimited
  | Current stacksize for task 152: unlimited
  | Current stacksize for task 153: unlimited
  | Current stacksize for task 154: unlimited
  | Current stacksize for task 155: unlimited
  | Current stacksize for task 156: unlimited
  | Current stacksize for task 157: unlimited
  | Current stacksize for task 158: unlimited
  | Current stacksize for task 159: unlimited
  | Current stacksize for task 160: unlimited
  | Current stacksize for task 161: unlimited
  | Current stacksize for task 162: unlimited
  | Current stacksize for task 163: unlimited
  | Current stacksize for task 164: unlimited
  | Current stacksize for task 165: unlimited
  | Current stacksize for task 166: unlimited
  | Current stacksize for task 167: unlimited
  | Current stacksize for task 168: unlimited
  | Current stacksize for task 169: unlimited
  | Current stacksize for task 170: unlimited
  | Current stacksize for task 171: unlimited
  | Current stacksize for task 172: unlimited
  | Current stacksize for task 173: unlimited
  | Current stacksize for task 174: unlimited
  | Current stacksize for task 175: unlimited
  | Current stacksize for task 176: unlimited
  | Current stacksize for task 177: unlimited
  | Current stacksize for task 178: unlimited
  | Current stacksize for task 179: unlimited
  | Current stacksize for task 180: unlimited
  | Current stacksize for task 181: unlimited
  | Current stacksize for task 182: unlimited
  | Current stacksize for task 183: unlimited
  | Current stacksize for task 184: unlimited
  | Current stacksize for task 185: unlimited
  | Current stacksize for task 186: unlimited
  | Current stacksize for task 187: unlimited
  | Current stacksize for task 188: unlimited
  | Current stacksize for task 189: unlimited
  | Current stacksize for task 190: unlimited
  | Current stacksize for task 191: unlimited
  | Current stacksize for task 192: unlimited
  | Current stacksize for task 193: unlimited
  | Current stacksize for task 194: unlimited
  | Current stacksize for task 195: unlimited
  | Current stacksize for task 196: unlimited
  | Current stacksize for task 197: unlimited
  | Current stacksize for task 198: unlimited
  | Current stacksize for task 199: unlimited
  | Current stacksize for task 200: unlimited
  | Current stacksize for task 201: unlimited
  | Current stacksize for task 202: unlimited
  | Current stacksize for task 203: unlimited
  | Current stacksize for task 204: unlimited
  | Current stacksize for task 205: unlimited
  | Current stacksize for task 206: unlimited
  | Current stacksize for task 207: unlimited
  | Current stacksize for task 208: unlimited
  | Current stacksize for task 209: unlimited
  | Current stacksize for task 210: unlimited
  | Current stacksize for task 211: unlimited
  | Current stacksize for task 212: unlimited
  | Current stacksize for task 213: unlimited
  | Current stacksize for task 214: unlimited
  | Current stacksize for task 215: unlimited
  | Current stacksize for task 216: unlimited
  | Current stacksize for task 217: unlimited
  | Current stacksize for task 218: unlimited
  | Current stacksize for task 219: unlimited
  | Current stacksize for task 220: unlimited
  | Current stacksize for task 221: unlimited
  | Current stacksize for task 222: unlimited
  | Current stacksize for task 223: unlimited
  | Current stacksize for task 224: unlimited
  | Current stacksize for task 225: unlimited
  | Current stacksize for task 226: unlimited
  | Current stacksize for task 227: unlimited
  | Current stacksize for task 228: unlimited
  | Current stacksize for task 229: unlimited
  | Current stacksize for task 230: unlimited
  | Current stacksize for task 231: unlimited
  | Current stacksize for task 232: unlimited
  | Current stacksize for task 233: unlimited
  | Current stacksize for task 234: unlimited
  | Current stacksize for task 235: unlimited
  | Current stacksize for task 236: unlimited
  | Current stacksize for task 237: unlimited
  | Current stacksize for task 238: unlimited
  | Current stacksize for task 239: unlimited
  | Current stacksize for task 240: unlimited
  | Current stacksize for task 241: unlimited
  | Current stacksize for task 242: unlimited
  | Current stacksize for task 243: unlimited
  | Current stacksize for task 244: unlimited
  | Current stacksize for task 245: unlimited
  | Current stacksize for task 246: unlimited
  | Current stacksize for task 247: unlimited
  | Current stacksize for task 248: unlimited
  | Current stacksize for task 249: unlimited
  | Current stacksize for task 250: unlimited
  | Current stacksize for task 251: unlimited
  | Current stacksize for task 252: unlimited
  | Current stacksize for task 253: unlimited
  | Current stacksize for task 254: unlimited
  | Current stacksize for task 255: unlimited

  Consistency checks for the contents of control.in are next.

  MPI_IN_PLACE appears to work with this MPI implementation.
  | Keeping use_mpi_in_place .true. (see manual).
  Target number of points in a grid batch is not set. Defaulting to  100
  Method for grid partitioning is not set. Defaulting to parallel hash+maxmin partitioning.
  Batch size limit is not set. Defaulting to    200
  By default, will store active basis functions for each batch.
  If in need of memory, prune_basis_once .false. can be used to disable this option.
  communication_type for Hartree potential was not specified.
  Defaulting to calc_hartree .
  Pulay mixer: Number of initial linear mixing iterations not set.
  Defaulting to    0 iterations.
  Work space size for distributed Hartree potential not set.
  Defaulting to   0.200000E+03 MB.
  Mixing parameter for charge density mixing has not been set.
  Using default: charge_mix_param =     0.0500.
  The mixing parameter will be adjusted in iteration number     2 of each s.c.f. cycle (i.e., each geometry step).
  Algorithm-dependent basis array size parameters:
  | n_max_pulay                         :       10
  Maximum number of self-consistency iterations not provided.
  Presetting  1000 iterations.
  Presetting      1001 iterations before the initial mixing cycle
  is restarted anyway using the sc_init_iter criterion / keyword.
  Presetting a factor      1.000 between actual scf density residual
  and density convergence criterion sc_accuracy_rho below which sc_init_iter
  takes no effect.
 * No s.c.f. convergence criteria (sc_accuracy_*) were provided in control.in.
 * The run will proceed with a reasonable default guess, but please check whether.
 * the s.c.f. cycles seem to take too much or too little time.
  Calculation of forces was not defined in control.in. No forces will be calculated.
  Geometry relaxation not requested: no relaxation will be performed.
 * Notice: The s.c.f. convergence criterion sc_accuracy_rho was not provided.
 * We used to stop in this case, and ask the user to provide reasonable
 * scf convergence criteria. However, this led some users to employ criteria
 * that led to extremely long run times, e.g., for simple relaxation.
 * We now preset a default value for sc_accuracy_rho if it is not set.
 * You may still wish to check if this setting is too tight or too loose for your needs.
 * Based on n_atoms and forces and force-correction status, FHI-aims chose sc_accuracy_rho =  0.195959E-04 .
  No accuracy limit for integral partition fn. given. Defaulting to  0.1000E-14.
  No threshold value for u(r) in integrations given. Defaulting to  0.1000E-05.
  No accuracy for occupation numbers given. Defaulting to  0.1000E-12.
  No threshold value for occupation numbers given. Defaulting to  0.0000E+00.
  No accuracy for fermi level given. Defaulting to  0.1000E-19.
  Maximum # of iterations to find E_F not set. Defaulting to  200.
  Will not use alltoall communication since running on < 1024 CPUs.
  partition_type (choice of integration weights) for integrals was not specified.
  | Using a version of the partition function of Stratmann and coworkers ('stratmann_sparse').
  | At each grid point, the set of atoms used to build the partition table is smoothly restricted to
  | only those atoms whose free-atom density would be non-zero at that grid point.
  Partitioning for Hartree potential was not defined. Using partition_type for integrals.
  | Adjusted default value of keyword multip_moments_threshold to:       0.10000000E-11
  | This value may affect high angular momentum components of the Hartree potential in periodic systems.
  Spin handling was not defined in control.in. Defaulting to unpolarized case.
  No q(lm)/r^(l+1) cutoff set for long-range Hartree potential.
  | Using default value of  0.100000E-09 .
  | Verify using the multipole_threshold keyword.
  Defaulting to new monopole extrapolation.
  Density update method: density matrix based density update selected.
  Scalapack and density-matrix based density update required:
  Switching to packed matrix format "index" by default.
  Charge integration errors on the 3D integration grid will be compensated
  by explicit normalization and distribution of residual charges.
  Use the "compensate_multipole_errors" flag to change this behaviour.
  Found no potential conflicts with setting 'use_local_index' for this calculation.
  Flag 'use_local_index' has not been set.
  Testing whether we classify this calculation as large-scale ...
  The calculation contains less than 100 atoms. This is most likely not a large-scale calculation.
  Not setting 'use_local_index'.

  Consistency checks for the contents of geometry.in are next.

  Number of empty states per atom not set in control.in - providing a guess from actual geometry.
  | Total number of empty states used during s.c.f. cycle:       72
  If you use a very high smearing, use empty_states (per atom!) in control.in to increase this value.

  Structure-dependent array size parameters: 
  | Maximum number of distinct radial functions  :       33
  | Maximum number of basis functions            :      780
  | Number of Kohn-Sham states (occupied + empty):      122
------------------------------------------------------------
  After read_input_data [GB]:    222.02

  Performing system and environment tests:
  | Environment variable OMP_NUM_THREADS correctly set to 1.
  | Checking for ScaLAPACK...
  | Testing pdtran()...
  | All pdtran() tests passed.
  After prepare_system [GB]:    221.96

------------------------------------------------------------
          Preparing all fixed parts of the calculation.
------------------------------------------------------------
  Determining machine precision:
     2.2250738585072014E-308
  Setting up grids for atomic and cluster calculations.

  Creating wave function, potential, and density for free atoms.
  Runtime choices for atomic solver:
  | atomic solver xc        : PBE
  | compute density gradient: 1
  | compute kinetic density : F

  Species: O

  List of occupied orbitals and eigenvalues:
    n    l              occ      energy [Ha]    energy [eV]
    1    0           2.0000       -18.927378      -515.0401
    2    0           2.0000        -0.880539       -23.9607
    2    1           4.0000        -0.331811        -9.0290


  Species: C

  List of occupied orbitals and eigenvalues:
    n    l              occ      energy [Ha]    energy [eV]
    1    0           2.0000       -10.049212      -273.4530
    2    0           2.0000        -0.504761       -13.7352
    2    1           2.0000        -0.193631        -5.2690


  Species: H

  List of occupied orbitals and eigenvalues:
    n    l              occ      energy [Ha]    energy [eV]
    1    0           1.0000        -0.238386        -6.4868


  Adding cutoff potential to free-atom effective potential.
  Creating fixed part of basis set: Ionic, confined, hydrogenic.

  O                    hydrogenic:

  List of hydrogenic basis orbitals: 
    n    l      effective z      eigenvalue [eV]  inner max. [A]     outer max. [A]     outer radius [A]   
    1    0         1.848771       -46.5036           0.285417           0.285417           4.749044
    1    0         3.095778      -130.3948           0.170802           0.170802           3.058254
    2    1         2.448957       -20.3995           0.868203           0.868203           5.301386
    2    1         5.857226      -116.6929           0.360044           0.360044           3.673771
    3    2         8.537017      -110.1769           0.559099           0.559099           4.202559
    3    2         8.962760      -121.4400           0.532417           0.532417           4.051222
    4    3        14.096196      -168.9680           0.601650           0.601650           3.764702
    1    0         3.621656      -178.4576           0.145704           0.145704           2.608875
    1    0         5.972725      -485.3619           0.088266           0.088266           1.619544
    2    1         6.294042      -134.7472           0.334580           0.334580           3.455938


  C                    hydrogenic:

  List of hydrogenic basis orbitals: 
    n    l      effective z      eigenvalue [eV]  inner max. [A]     outer max. [A]     outer radius [A]   
    1    0         1.806901       -44.4211           0.294391           0.294391           4.780049
    1    0         3.259668      -144.5664           0.161723           0.161723           2.895699
    2    1         1.974043       -13.2515           1.075734           1.075734           5.401630
    2    1         3.166168       -34.0980           0.667797           0.667797           5.207114
    3    2         5.890639       -52.4569           0.812068           0.812068           5.081344
    3    2         6.677161       -67.4003           0.709889           0.709889           4.958612
    4    3        10.149675       -87.6002           0.832167           0.832167           4.898362
    1    0         6.773070      -624.1540           0.077664           0.077664           1.425008
    1    0        13.859134     -2613.3215           0.038219           0.038219           0.709889
    2    1         3.647461       -45.2524           0.583771           0.583771           5.019603


  H                    hydrogenic:

  List of hydrogenic basis orbitals: 
    n    l      effective z      eigenvalue [eV]  inner max. [A]     outer max. [A]     outer radius [A]   
    1    0         1.219572       -20.2365           0.433025           0.433025           5.243229
    1    0         1.790153       -43.6015           0.296433           0.296433           4.813203
    2    1         3.438629       -40.2190           0.617279           0.617279           5.116587
    2    1         3.486847       -41.3549           0.609778           0.609778           5.116587
    3    2         6.208287       -58.2669           0.769215           0.769215           5.054418
    1    0         2.627683       -93.9435           0.200461           0.200461           3.589321

  Creating atomic-like basis functions for current effective potential.

  Species O                   :

  List of atomic basis orbitals and eigenvalues:
    n    l      energy [Ha]    energy [eV]    outer radius [A]
    1    0       -18.927378      -515.0401       1.415765
    2    0        -0.880539       -23.9607       5.048385
    2    1        -0.331811        -9.0290       5.301386


  Species C                   :

  List of atomic basis orbitals and eigenvalues:
    n    l      energy [Ha]    energy [eV]    outer radius [A]
    1    0       -10.049212      -273.4530       1.934409
    2    0        -0.504761       -13.7352       5.271162
    2    1        -0.193631        -5.2690       5.401630


  Species H                   :

  List of atomic basis orbitals and eigenvalues:
    n    l      energy [Ha]    energy [eV]    outer radius [A]
    1    0        -0.238386        -6.4868       5.373006

  Assembling full basis from fixed parts.
  | Species O :   atomic orbital   1 s accepted.
  | Species O :   atomic orbital   2 s accepted.
  | Species O :    hydro orbital   1 s accepted.
  | Species O :    hydro orbital   1 s accepted.
  | Species O :    hydro orbital   1 s accepted.
  | Species O :    hydro orbital   1 s accepted.
  | Species O :   atomic orbital   2 p accepted.
  | Species O :    hydro orbital   2 p accepted.
  | Species O :    hydro orbital   2 p accepted.
  | Species O :    hydro orbital   2 p accepted.
  | Species O :    hydro orbital   3 d accepted.
  | Species O :    hydro orbital   3 d accepted.
  | Species O :    hydro orbital   4 f accepted.
  | Species C :   atomic orbital   1 s accepted.
  | Species C :   atomic orbital   2 s accepted.
  | Species C :    hydro orbital   1 s accepted.
  | Species C :    hydro orbital   1 s accepted.
  | Species C :    hydro orbital   1 s accepted.
  | Species C :    hydro orbital   1 s accepted.
  | Species C :   atomic orbital   2 p accepted.
  | Species C :    hydro orbital   2 p accepted.
  | Species C :    hydro orbital   2 p accepted.
  | Species C :    hydro orbital   2 p accepted.
  | Species C :    hydro orbital   3 d accepted.
  | Species C :    hydro orbital   3 d accepted.
  | Species C :    hydro orbital   4 f accepted.
  | Species H :   atomic orbital   1 s accepted.
  | Species H :    hydro orbital   1 s accepted.
  | Species H :    hydro orbital   1 s accepted.
  | Species H :    hydro orbital   1 s accepted.
  | Species H :    hydro orbital   2 p accepted.
  | Species H :    hydro orbital   2 p accepted.
  | Species H :    hydro orbital   3 d accepted.

  Basis size parameters after reduction:
  | Total number of radial functions:       33
  | Total number of basis functions :      780

  Per-task memory consumption for arrays in subroutine allocate_ext:
  |          11.013528MB.
  Testing on-site integration grid accuracy.
  |  Species  Function  <phi|h_atom|phi> (log., in eV)  <phi|h_atom|phi> (rad., in eV)
           1        1               -515.0401491148               -515.0401445497
           1        2                -23.9606901999                -23.9606901323
           1        3                206.0187779700                206.0211765023
           1        4                158.2680046985                158.2701180152
           1        5                561.6007594243                561.6062533605
           1        6               1656.0587631500               1656.0425294084
           1        7                 -9.0290718243                 -9.0290720379
           1        8                 18.3295167950                 18.3295142218
           1        9                208.6408259714                208.6408479852
           1       10                167.4902732150                167.4902742661
           1       11                 57.8199386798                 57.8199387405
           1       12                119.1758445227                119.1758446893
           1       13                125.2521680551                125.2521680660
           2       14               -273.4529725981               -273.4529710451
           2       15                -13.7352530191                -13.7352524550
           2       16                 86.2023959499                 86.2029767647
           2       17                260.2909073737                260.2918994838
           2       18                563.5510062075                563.5857012050 ***
           2       19               4529.1613221568               4529.2331546281 ***
           2       20                 -5.2694407727                 -5.2694065285
           2       21                 12.8835084872                 12.8835821661
           2       22                 52.7701778290                 52.7713139734
           2       23                180.8047974108                180.8047860803
           2       24                 26.4065695601                 26.4065695149
           2       25                 63.3949305197                 63.3949301312
           2       26                 63.7095627995                 63.7095627983
           3       27                 -6.4870767962                 -6.4871688290
           3       28                  9.6181532369                  9.6169105299
           3       29                 63.1486086958                 63.1461585604
           3       30                200.3171618282                200.3149665030
           3       31                 24.1870988321                 24.1870987988
           3       32                 56.8339599798                 56.8339562921
           3       33                 46.6431498561                 46.6431498370
 * Note: Onsite integrals marked "***" above are less accurate than
 * onsite_accuracy_threshold =    0.03000 eV. Usually, this is harmless.
 * When in doubt, tighten the "radial" and/or "radial_multiplier" flags to check.

  Task       0:*** pseudo_inverse, for evaluate_coeff_d: error of  2.97E-13; eps:  1.00E-15
  Preparing densities etc. for the partition functions (integrals / Hartree potential).

  Preparations completed.
  max(cpu_time)          :      0.316 s.
  Wall clock time (cpu1) :      0.564 s.
------------------------------------------------------------
  After prepare_scf [GB]:    217.89

  Initializing index lists of integration centers etc. from given atomic structure:
  | Number of centers in hartree potential         :        36
  | Number of centers in hartree multipole         :        36
  | Number of centers in electron density summation:        36
[...]
  Polynomial ifit point:               5
  Polynomial coeffs size:               5
  Polynomial coeffs:       0.639E-10
  Polynomial coeffs:               4
  Polynomial derivative coeffs:       0.350E-04
  Polynomial coeffs:               4
  Polynomial derivative coeffs:      -0.469E-04
  Polynomial coeffs:               4
  Polynomial derivative coeffs:       0.111E-08
  Polynomial coeffs:               4
  Polynomial derivative coeffs:       0.256E-09
  Final mu_opt value:       0.747E+00
  Cost function at iteration  25:  0.57572188E+02
  Convergence criteria at iteration   25:  0.53822527E-05
  LMO optimisation converged!
  Final cost function value:          57.57218841
  Evaluating Hirshfeld population matrix using the KS eigenstates.
  ------------------------------------------------------------
 Exporting DM for embedding
  Evaluating density matrix
      Allocating      0.052 MB for tmp
      Allocating      0.067 MB for tmp
      Deallocating tmp
      Deallocating tmp
  Finished density matrix calculation
  | Time :     0.001 s
 Exporting DM for embedding
  Evaluating density matrix
      Allocating      0.052 MB for tmp
      Allocating      0.067 MB for tmp
      Deallocating tmp
      Deallocating tmp
  Finished density matrix calculation
  | Time :     0.001 s
  Finished localisation of CMOs in           1.640 s

  ------------------------------------------------------------
            Completed Unitary Localisation of CMOs
  ------------------------------------------------------------

  Integrating Hamiltonian matrix: batch-based integration.
  Time summed over all CPUs for integration: real work       73.468 s, elapsed       78.821 s
          Integrate hamiltonian matrix - separate compo:  max(cpu_time)    wall_clock(cpu1)
          | Total time                                  :        0.645 s           0.640 s
  Writing Kohn-Sham eigenvalues.

  State    Occupation    Eigenvalue [Ha]    Eigenvalue [eV]
      1       2.00000         -18.784922         -511.16373
      2       2.00000         -18.770466         -510.77036
      3       2.00000          -9.940975         -270.50770
      4       2.00000          -9.928226         -270.16077
      5       2.00000          -9.891806         -269.16973
      6       2.00000          -9.891254         -269.15472
      7       2.00000          -9.890811         -269.14267
      8       2.00000          -9.885660         -269.00250
      9       2.00000          -9.884644         -268.97485
     10       2.00000          -9.881936         -268.90115
     11       2.00000          -9.881689         -268.89443
     12       2.00000          -9.877699         -268.78586
     13       2.00000          -0.939528          -25.56586
     14       2.00000          -0.929503          -25.29305
     15       2.00000          -0.734868          -19.99677
     16       2.00000          -0.726925          -19.78064
     17       2.00000          -0.682397          -18.56896
     18       2.00000          -0.673611          -18.32988
     19       2.00000          -0.610312          -16.60743
     20       2.00000          -0.600663          -16.34487
     21       2.00000          -0.539733          -14.68688
     22       2.00000          -0.531463          -14.46185
     23       2.00000          -0.522519          -14.21848
     24       2.00000          -0.514448          -13.99884
     25       2.00000          -0.465060          -12.65494
     26       2.00000          -0.454401          -12.36489
     27       2.00000          -0.439439          -11.95774
     28       2.00000          -0.431428          -11.73976
     29       2.00000          -0.405311          -11.02906
     30       2.00000          -0.397394          -10.81364
     31       2.00000          -0.384173          -10.45389
     32       2.00000          -0.376255          -10.23843
     33       2.00000          -0.374494          -10.19050
     34       2.00000          -0.367866          -10.01014
     35       2.00000          -0.354345           -9.64222
     36       2.00000          -0.346607           -9.43166
     37       2.00000          -0.336551           -9.15801
     38       2.00000          -0.329311           -8.96101
     39       2.00000          -0.304932           -8.29761
     40       2.00000          -0.302197           -8.22321
     41       2.00000          -0.298236           -8.11541
     42       2.00000          -0.296543           -8.06936
     43       2.00000          -0.292820           -7.96805
     44       2.00000          -0.289813           -7.88623
     45       2.00000          -0.285188           -7.76037
     46       2.00000          -0.281093           -7.64892
     47       2.00000          -0.278573           -7.58036
     48       2.00000          -0.268117           -7.29583
     49       2.00000          -0.233862           -6.36372
     50       2.00000          -0.217348           -5.91434
     51       0.00000          -0.018518           -0.50389
     52       0.00000           0.006074            0.16529
     53       0.00000           0.011687            0.31802
     54       0.00000           0.016217            0.44129
     55       0.00000           0.021712            0.59082
     56       0.00000           0.024695            0.67197
     57       0.00000           0.026611            0.72411
     58       0.00000           0.029422            0.80061
     59       0.00000           0.033093            0.90051
     60       0.00000           0.038118            1.03724
     61       0.00000           0.059889            1.62966
     62       0.00000           0.065830            1.79132
     63       0.00000           0.066241            1.80251
     64       0.00000           0.070503            1.91849
     65       0.00000           0.080132            2.18050
     66       0.00000           0.084186            2.29081
     67       0.00000           0.087791            2.38893
     68       0.00000           0.090888            2.47319
     69       0.00000           0.092021            2.50403
     70       0.00000           0.102254            2.78247
     71       0.00000           0.105678            2.87564
     72       0.00000           0.109767            2.98692
     73       0.00000           0.113324            3.08370
     74       0.00000           0.120099            3.26805
     75       0.00000           0.121342            3.30189
     76       0.00000           0.126262            3.43576
     77       0.00000           0.138264            3.76236
     78       0.00000           0.140730            3.82945
     79       0.00000           0.156368            4.25498
     80       0.00000           0.165387            4.50040
     81       0.00000           0.167351            4.55386
     82       0.00000           0.174726            4.75455
     83       0.00000           0.180093            4.90057
     84       0.00000           0.183203            4.98520
     85       0.00000           0.190968            5.19651
     86       0.00000           0.191474            5.21028
     87       0.00000           0.193812            5.27389
     88       0.00000           0.200004            5.44239
     89       0.00000           0.218348            5.94156
     90       0.00000           0.219154            5.96348
     91       0.00000           0.227091            6.17946
     92       0.00000           0.228549            6.21914
     93       0.00000           0.230162            6.26303
     94       0.00000           0.236815            6.44406
     95       0.00000           0.250923            6.82797
     96       0.00000           0.257858            7.01668
     97       0.00000           0.258145            7.02449
     98       0.00000           0.262971            7.15580
     99       0.00000           0.269423            7.33139
    100       0.00000           0.274490            7.46926
    101       0.00000           0.281667            7.66455
    102       0.00000           0.295378            8.03765
    103       0.00000           0.304898            8.29671
    104       0.00000           0.311871            8.48645
    105       0.00000           0.313506            8.53094
    106       0.00000           0.319773            8.70147
    107       0.00000           0.324412            8.82771
    108       0.00000           0.332217            9.04009
    109       0.00000           0.345093            9.39046
    110       0.00000           0.346893            9.43944
    111       0.00000           0.348676            9.48795
    112       0.00000           0.350693            9.54284
    113       0.00000           0.355491            9.67340
    114       0.00000           0.356635            9.70453
    115       0.00000           0.362041            9.85163
    116       0.00000           0.363055            9.87923
    117       0.00000           0.371090           10.09788
    118       0.00000           0.371982           10.12215
    119       0.00000           0.376801           10.25327
    120       0.00000           0.382813           10.41688
    121       0.00000           0.392369           10.67690
    122       0.00000           0.399074           10.85935

  Highest occupied state (VBM) at     -5.91434320 eV
  | Occupation number:      2.00000000

  Lowest unoccupied state (CBM) at    -0.50389500 eV
  | Occupation number:      0.00000000

  Overall HOMO-LUMO gap:      5.41044820 eV.

  | Chemical Potential                          :    -3.20911910 eV
  | Note that, for insulating systems, the printed 'chemical potential' value is not uniquely defined.
  | It can be anywhere in the energy gap, as long as it correctly separates occupied and unoccupied states.
  | In systems with a gap, the physically relevant chemical potential is the VBM or HOMO.

  Self-consistency cycle converged.


------------------------------------------------------------
  End self-consistency iteration #    14       :  max(cpu_time)    wall_clock(cpu1)
  | Time for this iteration                     :        2.774 s           2.785 s
  | Charge density update                       :        0.000 s           0.000 s
  | Density mixing                              :        0.006 s           0.006 s
  | Hartree multipole update                    :        0.006 s           0.006 s
  | Hartree multipole summation                 :        0.121 s           0.121 s
  | Integration                                 :        0.257 s           0.257 s
  | Solution of K.-S. eqns.                     :        0.056 s           0.056 s
  | Total energy evaluation                     :        0.000 s           0.001 s

  Partial memory accounting:
  | Current value for overall tracked memory usage:
  |   Minimum:        8.736 MB (on task  51)
  |   Maximum:        8.851 MB (on task  43)
  |   Average:        8.783 MB
  | Peak value for overall tracked memory usage:
  |   Minimum:       23.622 MB (on task 123 after allocating wave)
  |   Maximum:       27.340 MB (on task  34 after allocating wave)
  |   Average:       25.979 MB
  | Largest tracked array allocation so far:
  |   Minimum:        4.642 MB (dm_dump on task   0)
  |   Maximum:        4.642 MB (dm_dump on task   0)
  |   Average:        4.642 MB
  Note:  These values currently only include a subset of arrays which are explicitly tracked.
  The "true" memory usage will be greater.
------------------------------------------------------------

  Energy and forces in a compact form:
  | Total energy uncorrected      :         -0.148548049280392E+05 eV
  | Total energy corrected        :         -0.148548049280392E+05 eV  <-- do not rely on this value for anything but (periodic) metals
  | Electronic free energy        :         -0.148548049280392E+05 eV

  ------------------------------------ 
  Start decomposition of the XC Energy 
  ------------------------------------ 
  X and C from original XC functional choice 
  Hartree-Fock Energy :          0.000000000 Ha              0.000000000 eV
  X Energy            :        -76.547995484 Ha          -2082.976937831 eV
  C Energy            :         -3.246517228 Ha            -88.342228578 eV
  XC Energy w/o HF    :        -79.794512712 Ha          -2171.319166409 eV
  Total XC Energy     :        -79.794512712 Ha          -2171.319166409 eV
  ------------------------------------ 
  LDA X and C from self-consistent density 
  X Energy LDA        :        -69.357738533 Ha          -1887.320091284 eV
  C Energy LDA        :         -6.279515142 Ha           -170.874301008 eV
  ------------------------------------ 
  End decomposition of the XC Energy 
  ------------------------------------ 

------------------------------------------------------------
------------------------------------------------------------

------------------------------------------------------------------------------
  Final output of selected total energy values:

  The following output summarizes some interesting total energy values
  at the end of a run (AFTER all relaxation, molecular dynamics, etc.).

  | Total energy of the DFT / Hartree-Fock s.c.f. calculation      :         -14854.804928039 eV
  | Final zero-broadening corrected energy (caution - metals only) :         -14854.804928039 eV
  | For reference only, the value of 1 Hartree used in FHI-aims is :             27.211384500 eV

  Before relying on these values, please be sure to understand exactly which
  total energy value is referred to by a given number. Different objects may
  all carry the same name 'total energy'. Definitions:

  Total energy of the DFT / Hartree-Fock s.c.f. calculation:
  | Note that this energy does not include ANY quantities calculated after the
  | s.c.f. cycle, in particular not ANY RPA, MP2, etc. many-body perturbation terms.

  Final zero-broadening corrected energy:
  | For metallic systems only, a broadening of the occupation numbers at the Fermi
  | level can be extrapolated back to zero broadening by an electron-gas inspired
  | formula. For all systems that are not real metals, this value can be
  | meaningless and should be avoided.

------------------------------------------------------------------------------
  Methods described in the following list of references were used in this FHI-aims run.
  If you publish the results, please make sure to cite these reference if they apply.
  FHI-aims is an academic code, and for our developers (often, Ph.D. students
  and postdocs), scientific credit in the community is essential.
  Thank you for helping us!

  For any use of FHI-aims, please cite:

    Volker Blum, Ralf Gehrke, Felix Hanke, Paula Havu, Ville Havu,
    Xinguo Ren, Karsten Reuter, and Matthias Scheffler
    'Ab initio molecular simulations with numeric atom-centered orbitals'
    Computer Physics Communications 180, 2175-2196 (2009)
    http://doi.org/10.1016/j.cpc.2009.06.022


  For the NAO-VCC-nZ basis sets used in this calculation, please cite:

    Igor Ying Zhang, Xinguo Ren, Patrick Rinke, Volker Blum, and Matthias Scheffler
    'Numeric atom-centered-orbital basis sets with valence-correlation consistency from H to Ar'
    New Journal of Physics 15, 123033 (2013).
    http://doi.org/10.1088/1367-2630/15/12/123033


  The ELSI infrastructure was used in your run to solve the Kohn-Sham electronic structure.
  Please check out https://wordpress.elsi-interchange.org to learn more.
  If scalability is important for your project, please acknowledge ELSI by citing:

    V. W-z. Yu, F. Corsetti, A. Garcia, W. P. Huhn, M. Jacquelin, W. Jia,
    B. Lange, L. Lin, J. Lu, W. Mi, A. Seifitokaldani, A. Vazquez-Mayagoitia,
    C. Yang, H. Yang, and V. Blum
    'ELSI: A unified software interface for Kohn-Sham electronic structure solvers'
    Computer Physics Communications 222, 267-285 (2018).
    http://doi.org/10.1016/j.cpc.2017.09.007


  For the real-space grid partitioning and parallelization used in this calculation, please cite:

    Ville Havu, Volker Blum, Paula Havu, and Matthias Scheffler,
    'Efficient O(N) integration for all-electron electronic structure calculation'
    'using numerically tabulated basis functions'
    Journal of Computational Physics 228, 8367-8379 (2009).
    http://doi.org/10.1016/j.jcp.2009.08.008


  The high-level electronic structure method used in your calculation
  employed our efficient localized resolution of identity for the Coulomb operator.
  Some calculations, especially large-scale hybrid density functional theory,
  are only possible thanks to this development. For this feature, please cite:

    Arvid Ihrig, Juergen Wieferink, Igor Ying Zhang, Matti Ropo, Xinguo Ren,
    Patrick Rinke, Matthias Scheffler, and Volker Blum,
    'Accurate localized resolution of identity approach for linear-scaling
    hybrid density functionals and for many-body perturbation theory'
    New Journal of Physics 117, 093020 (2015).
    http://doi.org/10.1088/1367-2630/17/9/093020

  Of course, there are many other important community references, e.g., those cited in the
  above references. Our list is limited to references that describe implementations in the
  FHI-aims code. The reason is purely practical (length of this list) - please credit others as well.
------------------------------------------------------------
Warnings summary:

At least    2 warnings were raised during execution.

------------------------------------------------------------
          Leaving FHI-aims.
          Date     :  20250714, Time     :  014320.673

          Computational steps:
          | Number of self-consistency cycles          :           14
          | Number of SCF (re)initializations          :            1

          Detailed time accounting                     :  max(cpu_time)    wall_clock(cpu1)
          | Total time                                  :       18.063 s          19.532 s
          | Preparation time                            :        0.333 s           0.474 s
          | Boundary condition initalization            :        0.034 s           0.035 s
          | Grid partitioning                           :        0.684 s           0.696 s
          | Preloading free-atom quantities on grid     :        0.143 s           0.176 s
          | Free-atom superposition energy              :        0.019 s           0.030 s
          | Total time for integrations                 :        4.090 s           4.197 s
          | Total time for solution of K.-S. equations  :        1.001 s           1.177 s
          | Total time for density update               :        6.860 s           6.863 s
          | Total time for mixing                       :        0.068 s           0.066 s
          | Total time for Hartree multipole update     :        0.091 s           0.091 s
          | Total time for Hartree multipole sum        :        1.708 s           1.716 s
          | Total time for total energy evaluation      :        0.007 s           0.007 s
          | Total time for scaled ZORA corrections      :        0.000 s           0.000 s

          Partial memory accounting:
          | Residual value for overall tracked memory usage across tasks:     0.000000 MB (should be 0.000000 MB)
          | Peak values for overall tracked memory usage:
          |   Minimum:       23.622 MB (on task 123 after allocating wave)
          |   Maximum:       27.340 MB (on task  34 after allocating wave)
          |   Average:       25.979 MB
          | Largest tracked array allocation:
          |   Minimum:        4.642 MB (dm_dump on task   0)
          |   Maximum:        4.642 MB (dm_dump on task   0)
          |   Average:        4.642 MB
          Note:  These values currently only include a subset of arrays which are explicitly tracked.
          The "true" memory usage will be greater.

          Have a nice day.
------------------------------------------------------------
