------------------------------------------------------------
          Invoking FHI-aims ...

          When using FHI-aims, please cite the following reference:

            Volker Blum, Ralf Gehrke, Felix Hanke, Paula Havu,
            Ville Havu, Xinguo Ren, Karsten Reuter, and Matthias Scheffler,
            'Ab Initio Molecular Simulations with Numeric Atom-Centered Orbitals',
            Computer Physics Communications 180, 2175-2196 (2009)

          In addition, many other developments in FHI-aims are likely important for
          your particular application. If so, please cite them. A partial list of references
          is written at the end of this file. Thank you for giving credit to the authors
          of these developments.

          For general information about FHI-aims please find us at

            https://fhi-aims.org

          Online tutorials can be found at

            https://fhi-aims-club.gitlab.io/tutorials/tutorials-overview/

          For any questions about FHI-aims, please visit our slack channel at

            https://fhi-aims.slack.com

          and our main development and support site at

            https://aims-git.rz-berlin.mpg.de .

          The latter site, in particular, has a wiki to collect information, as well
          as an issue tracker to log discussions, suggest improvements, and report issues
          or bugs. https://aims-git.rz-berlin.mpg.de is also the main development site
          of the project and all new and updated code versions can be obtained there.
          Please send an email to aims-coordinators@fhi-berlin.mpg.de and we will add
          you to these sites. They are for you and everyone is welcome there.

------------------------------------------------------------



  Date     :  20251111, Time     :  183110.595
  Time zero on CPU 1             :   0.415192420000000E+02  s.
  Internal wall clock time zero  :           532117870.595  s.

  FHI-aims created a unique identifier for this run for later identification
  aims_uuid : 5FD9FA7A-7C18-4CC3-A794-F40742D88429

  Build configuration of the current instance of FHI-aims
  -------------------------------------------------------
  FHI-aims version      : 251023
  Commit number         : 8c0f38015
  CMake host system     : Linux-3.10.0-1160.80.1.el7.x86_64
  CMake version         : 3.24.2
  OS Distribution       : CentOS Linux 7 (Core)
  Built on              : AMD EPYC 7502 32-Core Processor
  Fortran compiler      : /apps/compilers/intel/2018.2/compilers_and_libraries_2018/linux/mpi/intel64/bin/mpif90 (Intel) version 18.0.2.20180210
  Fortran compiler flags: -O3 -ip -fp-model precise
  C compiler            : /apps/compilers/intel/2018.2/compilers_and_libraries_2018/linux/mpi/intel64/bin/mpiicc (Intel) version 18.0.2.20180210
  C compiler flags      : -O3 -ip -fp-model precise -std=gnu99
  C++ compiler          : /apps/compilers/intel/2018.2/compilers_and_libraries_2018/linux/mpi/intel64/bin/mpiicpc (Intel) version 18.0.2.20180210
  C++ compiler flags    : -O3 -ip -fp-model precise
  HIP compiler          :
  HIP compiler flags    :
  HIP GPU arch          :
  ELPA2 kernel          : AVX2
  Using MPI
  Using ScaLAPACK
  Using LibXC
  Using i-PI
  Using RLSY
  Linking against: /apps/compilers/intel/2020.1/compilers_and_libraries_2020/linux/mkl/lib/intel64/libmkl_intel_lp64.so
                   /apps/compilers/intel/2020.1/compilers_and_libraries_2020/linux/mkl/lib/intel64/libmkl_intel_thread.so
                   /apps/compilers/intel/2020.1/compilers_and_libraries_2020/linux/mkl/lib/intel64/libmkl_core.so
                   /apps/compilers/intel/2020.1/compilers_and_libraries_2020/linux/mkl/lib/intel64/libmkl_blacs_intelmpi_lp64.so
                   /apps/compilers/intel/2020.1/compilers_and_libraries_2020/linux/mkl/lib/intel64/libmkl_scalapack_lp64.so
                   /usr/lib64/libpthread.so

  Using       64 parallel tasks.
  Task        0 on host cca9065 reporting.
  Task        1 on host cca9065 reporting.
  Task        2 on host cca9065 reporting.
  Task        3 on host cca9065 reporting.
  Task        4 on host cca9065 reporting.
  Task        5 on host cca9065 reporting.
  Task        6 on host cca9065 reporting.
  Task        7 on host cca9065 reporting.
  Task        8 on host cca9065 reporting.
  Task        9 on host cca9065 reporting.
  Task       10 on host cca9065 reporting.
  Task       11 on host cca9065 reporting.
  Task       12 on host cca9065 reporting.
  Task       13 on host cca9065 reporting.
  Task       14 on host cca9065 reporting.
  Task       15 on host cca9065 reporting.
  Task       16 on host cca9065 reporting.
  Task       17 on host cca9065 reporting.
  Task       18 on host cca9065 reporting.
  Task       19 on host cca9065 reporting.
  Task       20 on host cca9065 reporting.
  Task       21 on host cca9065 reporting.
  Task       22 on host cca9065 reporting.
  Task       23 on host cca9065 reporting.
  Task       24 on host cca9065 reporting.
  Task       25 on host cca9065 reporting.
  Task       26 on host cca9065 reporting.
  Task       27 on host cca9065 reporting.
  Task       28 on host cca9065 reporting.
  Task       29 on host cca9065 reporting.
  Task       30 on host cca9065 reporting.
  Task       31 on host cca9065 reporting.
  Task       32 on host cca9065 reporting.
  Task       33 on host cca9065 reporting.
  Task       34 on host cca9065 reporting.
  Task       35 on host cca9065 reporting.
  Task       36 on host cca9065 reporting.
  Task       37 on host cca9065 reporting.
  Task       38 on host cca9065 reporting.
  Task       39 on host cca9065 reporting.
  Task       40 on host cca9065 reporting.
  Task       41 on host cca9065 reporting.
  Task       42 on host cca9065 reporting.
  Task       43 on host cca9065 reporting.
  Task       44 on host cca9065 reporting.
  Task       45 on host cca9065 reporting.
  Task       46 on host cca9065 reporting.
  Task       47 on host cca9065 reporting.
  Task       48 on host cca9065 reporting.
  Task       49 on host cca9065 reporting.
  Task       50 on host cca9065 reporting.
  Task       51 on host cca9065 reporting.
  Task       52 on host cca9065 reporting.
  Task       53 on host cca9065 reporting.
  Task       54 on host cca9065 reporting.
  Task       55 on host cca9065 reporting.
  Task       56 on host cca9065 reporting.
  Task       57 on host cca9065 reporting.
  Task       58 on host cca9065 reporting.
  Task       59 on host cca9065 reporting.
  Task       60 on host cca9065 reporting.
  Task       61 on host cca9065 reporting.
  Task       62 on host cca9065 reporting.
  Task       63 on host cca9065 reporting.

  Obtaining array dimensions for all initial allocations:
  
  -----------------------------------------------------------------------
  Parsing control.in (first pass over file, find array dimensions only).
  The contents of control.in will be repeated verbatim below
  unless switched off by setting 'verbatim_writeout .false.' .
  in the first line of control.in .
  -----------------------------------------------------------------------
  
  #===============================================================================
  # Created using the Atomic Simulation Environment (ASE)
  
  # Tue Nov 11 18:31:10 2025
  
  #===============================================================================
  xc                                 PBE
  relativistic                       atomic_zora scalar
  occupation_type                    gaussian 0.01
  mixer                              pulay
  KS_method                          parallel
  RI_method                          LVL
  n_max_pulay                        10
  density_update_method              density_matrix
  lmo_pm_charge_metric               mulliken
  atomic_solver_xc                   PBE
  basis_threshold                    1e-05
  override_illconditioning           .true.
  override_initial_charge_check      .true.
  frequency_points                   50
  use_2d_corr                        .true.
  total_energy_method                rpa
  qm_embedding_mo_localise           .false.
  qm_embedding_calc                  3
  charge                             -2.000000000000199
  #===============================================================================
  
  ################################################################################
  #
  #  FHI-aims code project
  #  Volker Blum, Fritz Haber Institute Berlin, 2009
  #
  #  Suggested "tight" defaults for C atom (to be pasted into control.in file)
  #
  ################################################################################
    species        C
  #     global species definitions
      nucleus             6
      mass                12.0107
  #
      l_hartree           6
  #
      cut_pot             4.0  2.0  1.0
      basis_dep_cutoff    1e-4
  #
      radial_base         34 7.0
      radial_multiplier   2
      angular_grids specified
        division   0.2187   50
        division   0.4416  110
        division   0.6335  194
        division   0.7727  302
        division   0.8772  434
  #      division   0.9334  590
  #      division   0.9924  770
  #      division   1.0230  974
  #      division   1.5020 1202
  #     outer_grid  974
        outer_grid  434
  ################################################################################
  #
  #  Definition of "minimal" basis
  #
  ################################################################################
  #     valence basis states
      valence      2  s   2.
      valence      2  p   2.
  #     ion occupancy
      ion_occ      2  s   1.
      ion_occ      2  p   1.
  ################################################################################
  #
  #  Suggested additional basis functions. For production calculations,
  #  uncomment them one after another (the most important basis functions are
  #  listed first).
  #
  #  Constructed for dimers: 1.0 A, 1.25 A, 1.5 A, 2.0 A, 3.0 A
  #
  ################################################################################
  #  "First tier" - improvements: -1214.57 meV to -155.61 meV
       hydro 2 p 1.7
       hydro 3 d 6
       hydro 2 s 4.9
  #  "Second tier" - improvements: -67.75 meV to -5.23 meV
       hydro 4 f 9.8
       hydro 3 p 5.2
       hydro 3 s 4.3
       hydro 5 g 14.4
       hydro 3 d 6.2
  #  "Third tier" - improvements: -2.43 meV to -0.60 meV
  #     hydro 2 p 5.6
  #     hydro 2 s 1.4
  #     hydro 3 d 4.9
  #     hydro 4 f 11.2
  #  "Fourth tier" - improvements: -0.39 meV to -0.18 meV
  #     hydro 2 p 2.1
  #     hydro 5 g 16.4
  #     hydro 4 d 13.2
  #     hydro 3 s 13.6
  #     hydro 4 f 17.6
  #  Further basis functions - improvements: -0.08 meV and below
  #     hydro 3 s 2
  #     hydro 3 p 6
  #     hydro 4 d 20
  ################################################################################
  #
  # For methods that use the localized form of the "resolution of identity" for
  # the two-electron Coulomb operator (RI_method LVL), particularly Hartree-Fock and
  # hybrid density functional calculations, the highest accuracy can be obtained by
  # uncommenting the line beginning with "for_aux"  below, thus adding an extra g radial
  # function to the construction of the product basis set for the expansion.
  # See Ref. New J. Phys. 17, 093020 (2015) for more information, particularly Figs. 1 and 6.
  #
  ################################################################################
  #
  # for_aux hydro 5 g 6.0
  ################################################################################
  #
  #  FHI-aims code project
  #  Volker Blum, Fritz Haber Institute Berlin, 2009
  #
  #  Suggested "tight" defaults for O atom (to be pasted into control.in file)
  #
  ################################################################################
    species        O
  #     global species definitions
      nucleus             8
      mass                15.9994
  #
      l_hartree           6
  #
      cut_pot             4.0  2.0  1.0
      basis_dep_cutoff    1e-4
  #
      radial_base         36 7.0
      radial_multiplier   2
       angular_grids specified
        division   0.1817   50
        division   0.3417  110
        division   0.4949  194
        division   0.6251  302
        division   0.8014  434
  #      division   0.8507  590
  #      division   0.8762  770
  #      division   0.9023  974
  #      division   1.2339 1202
  #      outer_grid 974
        outer_grid  434
  ################################################################################
  #
  #  Definition of "minimal" basis
  #
  ################################################################################
  #     valence basis states
      valence      2  s   2.
      valence      2  p   4.
  #     ion occupancy
      ion_occ      2  s   1.
      ion_occ      2  p   3.
  ################################################################################
  #
  #  Suggested additional basis functions. For production calculations,
  #  uncomment them one after another (the most important basis functions are
  #  listed first).
  #
  #  Constructed for dimers: 1.0 A, 1.208 A, 1.5 A, 2.0 A, 3.0 A
  #
  ################################################################################
  #  "First tier" - improvements: -699.05 meV to -159.38 meV
       hydro 2 p 1.8
       hydro 3 d 7.6
       hydro 3 s 6.4
  #  "Second tier" - improvements: -49.91 meV to -5.39 meV
       hydro 4 f 11.6
       hydro 3 p 6.2
       hydro 3 d 5.6
       hydro 5 g 17.6
       hydro 1 s 0.75
  #  "Third tier" - improvements: -2.83 meV to -0.50 meV
  #     ionic 2 p auto
  #     hydro 4 f 10.8
  #     hydro 4 d 4.7
  #     hydro 2 s 6.8
  #  "Fourth tier" - improvements: -0.40 meV to -0.12 meV
  #     hydro 3 p 5
  #     hydro 3 s 3.3
  #     hydro 5 g 15.6
  #     hydro 4 f 17.6
  #     hydro 4 d 14
  # Further basis functions - -0.08 meV and below
  #     hydro 3 s 2.1
  #     hydro 4 d 11.6
  #     hydro 3 p 16
  #     hydro 2 s 17.2
  ################################################################################
  #
  # For methods that use the localized form of the "resolution of identity" for
  # the two-electron Coulomb operator (RI_method LVL), particularly Hartree-Fock and
  # hybrid density functional calculations, the highest accuracy can be obtained by
  # uncommenting the line beginning with "for_aux"  below, thus adding an extra g radial
  # function to the construction of the product basis set for the expansion.
  # See Ref. New J. Phys. 17, 093020 (2015) for more information, particularly Figs. 1 and 6.
  #
  ################################################################################
  #
  # for_aux hydro 5 g 6.0
  ################################################################################
  #
  #  FHI-aims code project
  #  Volker Blum, Fritz Haber Institute Berlin, 2009
  #
  #  Suggested "tight" defaults for H atom (to be pasted into control.in file)
  #
  ################################################################################
    species        H
  #     global species definitions
      nucleus             1
      mass                1.00794
  #
      l_hartree           6
  #
      cut_pot             4.0  2.0  1.0
      basis_dep_cutoff    1e-4
  #
      radial_base         24 7.0
      radial_multiplier   2
      angular_grids       specified
        division   0.1930   50
        division   0.3175  110
        division   0.4293  194
        division   0.5066  302
        division   0.5626  434
  #      division   0.5922  590
  #      division   0.6227  974
  #      division   0.6868 1202
  #      outer_grid  770
        outer_grid  434
  ################################################################################
  #
  #  Definition of "minimal" basis
  #
  ################################################################################
  #     valence basis states
      valence      1  s   1.
  #     ion occupancy
      ion_occ      1  s   0.5
  ################################################################################
  #
  #  Suggested additional basis functions. For production calculations,
  #  uncomment them one after another (the most important basis functions are
  #  listed first).
  #
  #  Basis constructed for dimers: 0.5 A, 0.7 A, 1.0 A, 1.5 A, 2.5 A
  #
  ################################################################################
  #  "First tier" - improvements: -1014.90 meV to -62.69 meV
       hydro 2 s 2.1
       hydro 2 p 3.5
  #  "Second tier" - improvements: -12.89 meV to -1.83 meV
       hydro 1 s 0.85
       hydro 2 p 3.7
       hydro 2 s 1.2
       hydro 3 d 7
  #  "Third tier" - improvements: -0.25 meV to -0.12 meV
  #     hydro 4 f 11.2
  #     hydro 3 p 4.8
  #     hydro 4 d 9
  #     hydro 3 s 3.2
  ################################################################################
  #
  # For methods that use the localized form of the "resolution of identity" for
  # the two-electron Coulomb operator (RI_method LVL), particularly Hartree-Fock and
  # hybrid density functional calculations, the highest accuracy can be obtained by
  # uncommenting the line beginning with "for_aux"  below, thus adding an extra g radial
  # function to the construction of the product basis set for the expansion.
  # See Ref. New J. Phys. 17, 093020 (2015) for more information, particularly Figs. 1 and 6.
  #
  ################################################################################
  #
  # for_aux hydro 5 g 6.0
  
  -----------------------------------------------------------------------
  Completed first pass over input file control.in .
  -----------------------------------------------------------------------
  
  
  -----------------------------------------------------------------------
  Parsing geometry.in (first pass over file, find array dimensions only).
  The contents of geometry.in will be repeated verbatim below
  unless switched off by setting 'verbatim_writeout .false.' .
  in the first line of geometry.in .
  -----------------------------------------------------------------------
  
  #===============================================================================
  # Created using the Atomic Simulation Environment (ASE)
  
  # Tue Nov 11 18:31:10 2025
  
  #=======================================================
  atom 0.6044402700000000 -0.6930199200000000 -0.5066024000000000 C
  qm_embedding_region 1
  atom 0.4950197700000000 0.5441475700000000 -0.4507170500000000 O
  qm_embedding_region 1
  atom -0.3714834200000000 -1.5048233300000000 -0.8792376400000000 O
  qm_embedding_region 1
  atom -1.2133858099999999 -0.9619812100000000 -1.1186774300000000 H
  qm_embedding_region 1
  atom -2.5340395899999999 -0.2056230600000000 -1.5159376600000001 O
  qm_embedding_region 1
  atom -2.6250696200000001 1.0334764599999999 -1.4898492200000000 C
  qm_embedding_region 1
  atom -0.8204470000000000 1.2966647499999999 -0.8338068600000000 H
  qm_embedding_region 1
  atom -1.6537280000000001 1.8440345000000000 -1.1007689000000001 O
  qm_embedding_region 1
  empty 3.5259095399999998 -3.3098039799999999 -0.4000337400000000 C
  qm_embedding_region 2
  empty 1.8918462300000001 -1.3840842900000001 -0.1179706500000000 C
  qm_embedding_region 2
  empty 2.7070067700000000 -0.6726914500000000 -0.3167187400000000 H
  qm_embedding_region 2
  empty 1.8572236400000000 -1.4977928599999999 0.9801585200000000 H
  qm_embedding_region 2
  empty 2.1532342600000001 -2.7413833400000001 -0.7786256600000000 C
  qm_embedding_region 2
  empty -3.8849502800000000 1.7508704500000001 -1.8947907200000000 C
  qm_embedding_region 2
  empty -4.5769489800000001 1.0515556100000001 -2.3725430900000002 H
  qm_embedding_region 2
  empty -4.3569127999999999 2.1796205500000001 -0.9996131500000000 H
  qm_embedding_region 2
  empty -3.6453615799999999 2.5835503900000001 -2.5678542700000002 H
  qm_embedding_region 2
  
  -----------------------------------------------------------------------
  Completed first pass over input file geometry.in .
  -----------------------------------------------------------------------
  

  Basic array size parameters:
  | Number of species                 :        3
  | Number of atoms                   :       17
  | Max. basis fn. angular momentum   :        4
  | Max. atomic/ionic basis occupied n:        2
  | Max. number of basis fn. types    :        2
  | Max. radial fns per species/type  :        8
  | Max. logarithmic grid size        :     1301
  | Max. radial integration grid size :       73
  | Max. angular integration grid size:      434
  | Max. angular grid division number :        8
  | Radial grid for Hartree potential :     1301
  | Number of spin channels           :        1

  Definition of standardized fundamental physical constants in this FHI-aims run:
  | Using the set of values used in FHI-aims up to 2024, which combines values from
  | different CODATA sets - see constants.f90.
  | Use the 'codata' keyword in control.in to change this selection.

  Memory overcommitment is allowed on your operating system.

------------------------------------------------------------
          Reading file control.in.
------------------------------------------------------------
  XC: Using PBE gradient-corrected functionals.
  Scalar relativistic treatment of kinetic energy: on-site free-atom approximation to ZORA.
  Occupation type: Gaussian broadening, width =   0.100000E-01 eV.
  Using pulay charge density mixing.
  Kohn-Sham electronic structure solved by the ELSI library.
  The 'LVL' version of RI (resolution of identity) technique is used.
  ** This is a localized expansion of all basis function products.
     Its intended use are Hartree-Fock and hybrid functionals.
     For RPA, MP2, GW, etc., LVL is not yet as accurate. In those cases, check carefully.
  Pulay mixing - number of memorized iterations:   10
  MO localisation with PM objective function calculated with Mulliken charges
  Atomic Solver XC: Using user-defined functional for generating the minimal NAO basis functions.
  Note that only the following functionals are available: kli, pz-lda, pw-lda, vwn, vwn-gauss, pw91_gga, pbe, rpbe, revpbe, pbeint, pbesol, blyp.
  Threshold for basis singularities:  0.1000E-04
  override_illconditioning: Explicitly overriding any built-in checks for an ill-conditioned overlap matrix.
** WARNING:
  ***  If you use this flag, you should really know what you are doing.
** END OF WARNING
** WARNING:
  *** DO NOT keep this flag set by default in all your control.in files.
** END OF WARNING
  Number of frequency points used for the self-energy calculation:     50
  Efficient 2D distribution for correlation code.
  RPA correlation energy calculation will be started after the DFT/HF calculation.
  Charged system requested: Charge =  -0.200000E+01.
 
  Reading configuration options for species C                   .
  | Found nuclear charge :   6.0000
  | Found atomic mass :    12.0107000000000      amu
  | Found l_max for Hartree potential  :   6
  | Found cutoff potl. onset [A], width [A], scale factor :    4.00000    2.00000    1.00000
  | Threshold for basis-dependent cutoff potential is   0.100000E-03
  | Found data for basic radial integration grid :    34 points, outermost radius =    7.000 A
  | Found multiplier for basic radial grid :   2
  | Found angular grid specification: user-specified.
  | Specified grid contains     6 separate shells.
  | Check grid settings after all constraints further below.
  | Found free-atom valence shell :  2 s   2.000
  | Found free-atom valence shell :  2 p   2.000
  | No ionic wave fns used. Skipping ion_occ.
  | No ionic wave fns used. Skipping ion_occ.
  | Found hydrogenic basis function :  2 p   1.700
  | Found hydrogenic basis function :  3 d   6.000
  | Found hydrogenic basis function :  2 s   4.900
  | Found hydrogenic basis function :  4 f   9.800
  | Found hydrogenic basis function :  3 p   5.200
  | Found hydrogenic basis function :  3 s   4.300
  | Found hydrogenic basis function :  5 g  14.400
  | Found hydrogenic basis function :  3 d   6.200
 | Encountered keyword species, ending the description of species C                   .
  Species C                   : Missing cutoff potential type.
  Defaulting to exp(1/x)/(1-x)^2 type cutoff potential.
  Species C : No 'logarithmic' tag. Using default grid for free atom:
  | Default logarithmic grid data [bohr] : 0.1000E-03 0.1000E+03 0.1012E+01
  Species C : On-site basis accuracy parameter (for Gram-Schmidt orthonormalisation) not specified.
  Using default value basis_acc =  0.1000000E-03.
  Species C                   : Using default innermost maximum threshold i_radial=  2 for radial functions.
  Species C                   : Default cutoff onset for free atom density etc. : 0.40000000E+01 AA.
  Species C                   : Basic radial grid will be enhanced according to radial_multiplier =   2, to contain    69 grid points.
 
  Reading configuration options for species O                   .
  | Found nuclear charge :   8.0000
  | Found atomic mass :    15.9994000000000      amu
  | Found l_max for Hartree potential  :   6
  | Found cutoff potl. onset [A], width [A], scale factor :    4.00000    2.00000    1.00000
  | Threshold for basis-dependent cutoff potential is   0.100000E-03
  | Found data for basic radial integration grid :    36 points, outermost radius =    7.000 A
  | Found multiplier for basic radial grid :   2
  | Found angular grid specification: user-specified.
  | Specified grid contains     6 separate shells.
  | Check grid settings after all constraints further below.
  | Found free-atom valence shell :  2 s   2.000
  | Found free-atom valence shell :  2 p   4.000
  | No ionic wave fns used. Skipping ion_occ.
  | No ionic wave fns used. Skipping ion_occ.
  | Found hydrogenic basis function :  2 p   1.800
  | Found hydrogenic basis function :  3 d   7.600
  | Found hydrogenic basis function :  3 s   6.400
  | Found hydrogenic basis function :  4 f  11.600
  | Found hydrogenic basis function :  3 p   6.200
  | Found hydrogenic basis function :  3 d   5.600
  | Found hydrogenic basis function :  5 g  17.600
  | Found hydrogenic basis function :  1 s   0.750
 | Encountered keyword species, ending the description of species O                   .
  Species O                   : Missing cutoff potential type.
  Defaulting to exp(1/x)/(1-x)^2 type cutoff potential.
  Species O : No 'logarithmic' tag. Using default grid for free atom:
  | Default logarithmic grid data [bohr] : 0.1000E-03 0.1000E+03 0.1012E+01
  Species O : On-site basis accuracy parameter (for Gram-Schmidt orthonormalisation) not specified.
  Using default value basis_acc =  0.1000000E-03.
  Species O                   : Using default innermost maximum threshold i_radial=  2 for radial functions.
  Species O                   : Default cutoff onset for free atom density etc. : 0.40000000E+01 AA.
  Species O                   : Basic radial grid will be enhanced according to radial_multiplier =   2, to contain    73 grid points.
 
  Reading configuration options for species H                   .
  | Found nuclear charge :   1.0000
  | Found atomic mass :    1.00794000000000      amu
  | Found l_max for Hartree potential  :   6
  | Found cutoff potl. onset [A], width [A], scale factor :    4.00000    2.00000    1.00000
  | Threshold for basis-dependent cutoff potential is   0.100000E-03
  | Found data for basic radial integration grid :    24 points, outermost radius =    7.000 A
  | Found multiplier for basic radial grid :   2
  | Found angular grid specification: user-specified.
  | Specified grid contains     6 separate shells.
  | Check grid settings after all constraints further below.
  | Found free-atom valence shell :  1 s   1.000
  | No ionic wave fns used. Skipping ion_occ.
  | Found hydrogenic basis function :  2 s   2.100
  | Found hydrogenic basis function :  2 p   3.500
  | Found hydrogenic basis function :  1 s   0.850
  | Found hydrogenic basis function :  2 p   3.700
  | Found hydrogenic basis function :  2 s   1.200
  | Found hydrogenic basis function :  3 d   7.000
  Species H                   : Missing cutoff potential type.
  Defaulting to exp(1/x)/(1-x)^2 type cutoff potential.
  Species H : No 'logarithmic' tag. Using default grid for free atom:
  | Default logarithmic grid data [bohr] : 0.1000E-03 0.1000E+03 0.1012E+01
  Species H : On-site basis accuracy parameter (for Gram-Schmidt orthonormalisation) not specified.
  Using default value basis_acc =  0.1000000E-03.
  Species H                   : Using default innermost maximum threshold i_radial=  2 for radial functions.
  Species H                   : Default cutoff onset for free atom density etc. : 0.40000000E+01 AA.
  Species H                   : Basic radial grid will be enhanced according to radial_multiplier =   2, to contain    49 grid points.
 
  Finished reading input file 'control.in'.
 
------------------------------------------------------------


------------------------------------------------------------
          Reading geometry description geometry.in.
------------------------------------------------------------
  | The smallest distance between any two atoms is         1.02995564 AA.
  | The first atom of this pair is atom number                      3 .
  | The second atom of this pair is atom number                     4 .
  Input structure read successfully.
  The structure contains       17 atoms,  and a total of         48.000 electrons.

  Input geometry:
  | No unit cell requested.
  | Atomic structure:
  |       Atom                x [A]            y [A]            z [A]
  |    1: Species C             0.60444027       -0.69301992       -0.50660240
  |    2: Species O             0.49501977        0.54414757       -0.45071705
  |    3: Species O            -0.37148342       -1.50482333       -0.87923764
  |    4: Species H            -1.21338581       -0.96198121       -1.11867743
  |    5: Species O            -2.53403959       -0.20562306       -1.51593766
  |    6: Species C            -2.62506962        1.03347646       -1.48984922
  |    7: Species H            -0.82044700        1.29666475       -0.83380686
  |    8: Species O            -1.65372800        1.84403450       -1.10076890
  |       Ghost               x [A]            y [A]            z [A]
  |    9: Species C         3.52590954       -3.30980398       -0.40003374
  |   10: Species C         1.89184623       -1.38408429       -0.11797065
  |   11: Species H         2.70700677       -0.67269145       -0.31671874
  |   12: Species H         1.85722364       -1.49779286        0.98015852
  |   13: Species C         2.15323426       -2.74138334       -0.77862566
  |   14: Species C        -3.88495028        1.75087045       -1.89479072
  |   15: Species H        -4.57694898        1.05155561       -2.37254309
  |   16: Species H        -4.35691280        2.17962055       -0.99961315
  |   17: Species H        -3.64536158        2.58355039       -2.56785427

  Slab Identifier: This is not a periodic structure.
 
  Finished reading input file 'geometry.in'.
 

 
  Consistency checks for stacksize environment parameter are next.
 
  | Maximum stacksize for task 0: unlimited
  | Maximum stacksize for task 1: unlimited
  | Maximum stacksize for task 2: unlimited
  | Maximum stacksize for task 3: unlimited
  | Maximum stacksize for task 4: unlimited
  | Maximum stacksize for task 5: unlimited
  | Maximum stacksize for task 6: unlimited
  | Maximum stacksize for task 7: unlimited
  | Maximum stacksize for task 8: unlimited
  | Maximum stacksize for task 9: unlimited
  | Maximum stacksize for task 10: unlimited
  | Maximum stacksize for task 11: unlimited
  | Maximum stacksize for task 12: unlimited
  | Maximum stacksize for task 13: unlimited
  | Maximum stacksize for task 14: unlimited
  | Maximum stacksize for task 15: unlimited
  | Maximum stacksize for task 16: unlimited
  | Maximum stacksize for task 17: unlimited
  | Maximum stacksize for task 18: unlimited
  | Maximum stacksize for task 19: unlimited
  | Maximum stacksize for task 20: unlimited
  | Maximum stacksize for task 21: unlimited
  | Maximum stacksize for task 22: unlimited
  | Maximum stacksize for task 23: unlimited
  | Maximum stacksize for task 24: unlimited
  | Maximum stacksize for task 25: unlimited
  | Maximum stacksize for task 26: unlimited
  | Maximum stacksize for task 27: unlimited
  | Maximum stacksize for task 28: unlimited
  | Maximum stacksize for task 29: unlimited
  | Maximum stacksize for task 30: unlimited
  | Maximum stacksize for task 31: unlimited
  | Maximum stacksize for task 32: unlimited
  | Maximum stacksize for task 33: unlimited
  | Maximum stacksize for task 34: unlimited
  | Maximum stacksize for task 35: unlimited
  | Maximum stacksize for task 36: unlimited
  | Maximum stacksize for task 37: unlimited
  | Maximum stacksize for task 38: unlimited
  | Maximum stacksize for task 39: unlimited
  | Maximum stacksize for task 40: unlimited
  | Maximum stacksize for task 41: unlimited
  | Maximum stacksize for task 42: unlimited
  | Maximum stacksize for task 43: unlimited
  | Maximum stacksize for task 44: unlimited
  | Maximum stacksize for task 45: unlimited
  | Maximum stacksize for task 46: unlimited
  | Maximum stacksize for task 47: unlimited
  | Maximum stacksize for task 48: unlimited
  | Maximum stacksize for task 49: unlimited
  | Maximum stacksize for task 50: unlimited
  | Maximum stacksize for task 51: unlimited
  | Maximum stacksize for task 52: unlimited
  | Maximum stacksize for task 53: unlimited
  | Maximum stacksize for task 54: unlimited
  | Maximum stacksize for task 55: unlimited
  | Maximum stacksize for task 56: unlimited
  | Maximum stacksize for task 57: unlimited
  | Maximum stacksize for task 58: unlimited
  | Maximum stacksize for task 59: unlimited
  | Maximum stacksize for task 60: unlimited
  | Maximum stacksize for task 61: unlimited
  | Maximum stacksize for task 62: unlimited
  | Maximum stacksize for task 63: unlimited
  | Current stacksize for task 0: unlimited
  | Current stacksize for task 1: unlimited
  | Current stacksize for task 2: unlimited
  | Current stacksize for task 3: unlimited
  | Current stacksize for task 4: unlimited
  | Current stacksize for task 5: unlimited
  | Current stacksize for task 6: unlimited
  | Current stacksize for task 7: unlimited
  | Current stacksize for task 8: unlimited
  | Current stacksize for task 9: unlimited
  | Current stacksize for task 10: unlimited
  | Current stacksize for task 11: unlimited
  | Current stacksize for task 12: unlimited
  | Current stacksize for task 13: unlimited
  | Current stacksize for task 14: unlimited
  | Current stacksize for task 15: unlimited
  | Current stacksize for task 16: unlimited
  | Current stacksize for task 17: unlimited
  | Current stacksize for task 18: unlimited
  | Current stacksize for task 19: unlimited
  | Current stacksize for task 20: unlimited
  | Current stacksize for task 21: unlimited
  | Current stacksize for task 22: unlimited
  | Current stacksize for task 23: unlimited
  | Current stacksize for task 24: unlimited
  | Current stacksize for task 25: unlimited
  | Current stacksize for task 26: unlimited
  | Current stacksize for task 27: unlimited
  | Current stacksize for task 28: unlimited
  | Current stacksize for task 29: unlimited
  | Current stacksize for task 30: unlimited
  | Current stacksize for task 31: unlimited
  | Current stacksize for task 32: unlimited
  | Current stacksize for task 33: unlimited
  | Current stacksize for task 34: unlimited
  | Current stacksize for task 35: unlimited
  | Current stacksize for task 36: unlimited
  | Current stacksize for task 37: unlimited
  | Current stacksize for task 38: unlimited
  | Current stacksize for task 39: unlimited
  | Current stacksize for task 40: unlimited
  | Current stacksize for task 41: unlimited
  | Current stacksize for task 42: unlimited
  | Current stacksize for task 43: unlimited
  | Current stacksize for task 44: unlimited
  | Current stacksize for task 45: unlimited
  | Current stacksize for task 46: unlimited
  | Current stacksize for task 47: unlimited
  | Current stacksize for task 48: unlimited
  | Current stacksize for task 49: unlimited
  | Current stacksize for task 50: unlimited
  | Current stacksize for task 51: unlimited
  | Current stacksize for task 52: unlimited
  | Current stacksize for task 53: unlimited
  | Current stacksize for task 54: unlimited
  | Current stacksize for task 55: unlimited
  | Current stacksize for task 56: unlimited
  | Current stacksize for task 57: unlimited
  | Current stacksize for task 58: unlimited
  | Current stacksize for task 59: unlimited
  | Current stacksize for task 60: unlimited
  | Current stacksize for task 61: unlimited
  | Current stacksize for task 62: unlimited
  | Current stacksize for task 63: unlimited
 
  Consistency checks for the contents of control.in are next.
 
  MPI_IN_PLACE appears to work with this MPI implementation.
  | Keeping use_mpi_in_place .true. (see manual).
  Species C: Using default value for prodbas_acc =   1.000000E-04.
  Species C: Using default value max_l_prodbas =    20.
  Species O: Using default value for prodbas_acc =   1.000000E-04.
  Species O: Using default value max_l_prodbas =    20.
  Species H: Using default value for prodbas_acc =   1.000000E-04.
  Species H: Using default value max_l_prodbas =    20.
  Target number of points in a grid batch is not set. Defaulting to  100
  Method for grid partitioning is not set. Defaulting to parallel hash+maxmin partitioning.
  Batch size limit is not set. Defaulting to    200
  By default, will store active basis functions for each batch.
  If in need of memory, prune_basis_once .false. can be used to disable this option.
  communication_type for Hartree potential was not specified.
  Defaulting to calc_hartree .
  Pulay mixer: Number of initial linear mixing iterations not set.
  Defaulting to    0 iterations.
  Work space size for distributed Hartree potential not set.
  Defaulting to   0.200000E+03 MB.
  Mixing parameter for charge density mixing has not been set.
  Using default: charge_mix_param =     0.0500.
  The mixing parameter will be adjusted in iteration number     2 of each s.c.f. cycle (i.e., each geometry step).
  Algorithm-dependent basis array size parameters:
  | n_max_pulay                         :       10
  Maximum number of self-consistency iterations not provided.
  Presetting  1000 iterations.
  Presetting      1001 iterations before the initial mixing cycle
  is restarted anyway using the sc_init_iter criterion / keyword.
  Presetting a factor      1.000 between actual scf density residual
  and density convergence criterion sc_accuracy_rho below which sc_init_iter
  takes no effect.
 * No s.c.f. convergence criteria (sc_accuracy_*) were provided in control.in.
 * The run will proceed with a reasonable default guess, but please check whether.
 * the s.c.f. cycles seem to take too much or too little time.
  Calculation of forces was not defined in control.in. No forces will be calculated.
  Geometry relaxation not requested: no relaxation will be performed.
 * Notice: The s.c.f. convergence criterion sc_accuracy_rho was not provided.
 * We used to stop in this case, and ask the user to provide reasonable
 * scf convergence criteria. However, this led some users to employ criteria
 * that led to extremely long run times, e.g., for simple relaxation.
 * We now preset a default value for sc_accuracy_rho if it is not set.
 * You may still wish to check if this setting is too tight or too loose for your needs.
 * Based on n_atoms and forces and force-correction status, FHI-aims chose sc_accuracy_rho =  0.134660E-04 .
  No accuracy limit for integral partition fn. given. Defaulting to  0.1000E-14.
  No threshold value for u(r) in integrations given. Defaulting to  0.1000E-05.
  No accuracy for occupation numbers given. Defaulting to  0.1000E-12.
  No threshold value for occupation numbers given. Defaulting to  0.0000E+00.
  No accuracy for fermi level given. Defaulting to  0.1000E-19.
  Maximum # of iterations to find E_F not set. Defaulting to  200.
  Will not use alltoall communication since running on < 1024 CPUs.
  partition_type (choice of integration weights) for integrals was not specified.
  | Using a version of the partition function of Stratmann and coworkers ('stratmann_sparse').
  | At each grid point, the set of atoms used to build the partition table is smoothly restricted to
  | only those atoms whose free-atom density would be non-zero at that grid point.
  Partitioning for Hartree potential was not defined. Using partition_type for integrals.
  | Adjusted default value of keyword multip_moments_threshold to:       0.10000000E-11
  | This value may affect high angular momentum components of the Hartree potential in periodic systems.
  Spin handling was not defined in control.in. Defaulting to unpolarized case.
  Threshold for auxiliary basis singularities not set.
  Default threshold for auxiliary basis singularities:  0.1000E-04
  Use default threshold for vanishing multipole moments of auxiliary basis:  0.1000E-07
  No q(lm)/r^(l+1) cutoff set for long-range Hartree potential.
  | Using default value of  0.100000E-09 .
  | Verify using the multipole_threshold keyword.
  Defaulting to new monopole extrapolation.
  Density update method: density matrix based density update selected.
  Scalapack and density-matrix based density update required:
  Switching to packed matrix format "index" by default.
  Charge integration errors on the 3D integration grid will be compensated
  by explicit normalization and distribution of residual charges.
  Use the "compensate_multipole_errors" flag to change this behaviour.
  Default to 1D ("use_logsbt") integrations for auxiliary 2-center integrals.
  Default onset of logarithmic r-grid for SBT is -38.000000000000
  Default onset of logarithmic k-grid for SBT is -25.000000000000
  Default range of logarithmic r- and k-grid for SBT is  45.000000000000
  Default number of logarithmic r- and k-grid for SBT is   4096
  Set 'collect_eigenvectors' to be '.true.' for GW/RPA/MP2, SCREX/COHSEX cluster calculations
  Set 'collect_eigenvectors' to be '.true.' for qpe_calc (quasiparticle energy).
  Found no potential conflicts with setting 'use_local_index' for this calculation.
  Flag 'use_local_index' has not been set.
  Testing whether we classify this calculation as large-scale ...
  The calculation contains less than 100 atoms. This is most likely not a large-scale calculation.
  Not setting 'use_local_index'.
 
  Consistency checks for the contents of geometry.in are next.
 
 * Warning: Initial charge and total charge of the system are inconsistent.
 * Selected charge in control.in:    -2.0000
 * Sum of initial charges in geometry.in:     0.0000
  Number of empty states per atom not set in control.in .
  | Since you are using a method that relies on the unoccupied spectrum
  | (MP2,GW,RPA et al.), will use the full Hamiltonian size (see below)
  | as the max. possible number of states (occupied plus empty).

  Structure-dependent array size parameters: 
  | Maximum number of distinct radial functions  :       29
  | Maximum number of basis functions            :      495
  | Number of Kohn-Sham states (occupied + empty):      495
------------------------------------------------------------
  After read_input_data [GB]:    224.16

  Performing system and environment tests:
  | Environment variable OMP_NUM_THREADS correctly set to 1.
  | Checking for ScaLAPACK...
  | Testing pdtran()...
  | All pdtran() tests passed.
  | Testing CPU compatibility for run-time vs. build-time.
  | Reading /proc/cpuinfo for CPU information ...
  | Built for  : AMD EPYC 7502 32-Core Processor
  | Running on : AMD EPYC 7502 32-Core Processor
  | Runtime CPU compatibility verified.
  
  After prepare_system [GB]:    224.15

------------------------------------------------------------
          Preparing all fixed parts of the calculation.
------------------------------------------------------------
  Determining machine precision:
    2.225073858507201E-308
  Setting up grids for atomic and cluster calculations.

  Creating wave function, potential, and density for free atoms.
  Runtime choices for atomic solver:
  | atomic solver xc        : PBE
  | compute density gradient: 1
  | compute kinetic density : F

  Species: C

  List of occupied orbitals and eigenvalues:
    n    l              occ      energy [Ha]    energy [eV]
    1    0           2.0000       -10.049212      -273.4530
    2    0           2.0000        -0.504761       -13.7352
    2    1           2.0000        -0.193631        -5.2690


  Species: O

  List of occupied orbitals and eigenvalues:
    n    l              occ      energy [Ha]    energy [eV]
    1    0           2.0000       -18.927378      -515.0401
    2    0           2.0000        -0.880539       -23.9607
    2    1           4.0000        -0.331811        -9.0290


  Species: H

  List of occupied orbitals and eigenvalues:
    n    l              occ      energy [Ha]    energy [eV]
    1    0           1.0000        -0.238386        -6.4868


  Adding cutoff potential to free-atom effective potential.
  Creating fixed part of basis set: Ionic, confined, hydrogenic.
 
  C                    hydrogenic:
 
  List of hydrogenic basis orbitals: 
    n    l      effective z      eigenvalue [eV]  inner max. [A]     outer max. [A]     outer radius [A]   
    2    1         1.700000        -9.8152           1.245706           1.245706           5.401630
    3    2         6.000000       -54.4226           0.792453           0.792453           4.178599
    2    0         4.900000       -81.6681           0.082559           0.562749           3.353238
    4    3         9.800000       -81.6681           0.863254           0.863254           4.028125
    3    1         5.200000       -40.8774           0.305389           1.215618           4.898362
    3    0         4.300000       -27.9508           0.091041           1.610311           5.401630
    5    4        14.400000      -112.8510           0.917666           0.917666           3.883070
    3    2         6.200000       -58.1113           0.763917           0.763917           4.077671
 
 
  O                    hydrogenic:
 
  List of hydrogenic basis orbitals: 
    n    l      effective z      eigenvalue [eV]  inner max. [A]     outer max. [A]     outer radius [A]   
    2    1         1.800000       -11.0118           1.178562           1.178562           5.432602
    3    2         7.600000       -87.3182           0.624125           0.624125           3.541477
    3    0         6.400000       -61.9209           0.061167           1.081902           4.306578
    4    3        11.600000      -114.4238           0.731631           0.731631           3.585037
    3    1         6.200000       -58.1113           0.255680           1.030270           4.306578
    3    2         5.600000       -47.4081           0.847233           0.847233           4.413171
    5    4        17.600000      -168.5799           0.749740           0.749740           3.372465
    1    0         0.750000        -7.6499           0.705284           0.705284           5.366593
 
 
  H                    hydrogenic:
 
  List of hydrogenic basis orbitals: 
    n    l      effective z      eigenvalue [eV]  inner max. [A]     outer max. [A]     outer radius [A]   
    2    0         2.100000       -14.9965           0.193243           1.317208           5.373006
    2    1         3.500000       -41.6672           0.602369           0.602369           4.056063
    1    0         0.850000        -9.8292           0.624871           0.624871           5.373006
    2    1         3.700000       -46.5653           0.573622           0.573622           3.910002
    2    0         1.200000        -4.5995           0.334980           2.228188           5.505995
    3    2         7.000000       -74.0753           0.680699           0.680699           3.769201
 
  Creating atomic-like basis functions for current effective potential.

  Species C                   :

  List of atomic basis orbitals and eigenvalues:
    n    l      energy [Ha]    energy [eV]    outer radius [A]
    1    0       -10.049212      -273.4530       1.934409
    2    0        -0.504761       -13.7352       5.271162
    2    1        -0.193631        -5.2690       5.401630


  Species O                   :

  List of atomic basis orbitals and eigenvalues:
    n    l      energy [Ha]    energy [eV]    outer radius [A]
    1    0       -18.927378      -515.0401       1.415765
    2    0        -0.880539       -23.9607       5.048385
    2    1        -0.331811        -9.0290       5.301386


  Species H                   :

  List of atomic basis orbitals and eigenvalues:
    n    l      energy [Ha]    energy [eV]    outer radius [A]
    1    0        -0.238386        -6.4868       5.373006

  Assembling full basis from fixed parts.
  | Species C :   atomic orbital   1 s accepted.
  | Species C :    hydro orbital   2 s accepted.
  | Species C :   atomic orbital   2 s accepted.
  | Species C :    hydro orbital   3 s accepted.
  | Species C :    hydro orbital   3 p accepted.
  | Species C :   atomic orbital   2 p accepted.
  | Species C :    hydro orbital   2 p accepted.
  | Species C :    hydro orbital   3 d accepted.
  | Species C :    hydro orbital   3 d accepted.
  | Species C :    hydro orbital   4 f accepted.
  | Species C :    hydro orbital   5 g accepted.
  | Species O :   atomic orbital   1 s accepted.
  | Species O :    hydro orbital   3 s accepted.
  | Species O :   atomic orbital   2 s accepted.
  | Species O :    hydro orbital   1 s accepted.
  | Species O :    hydro orbital   3 p accepted.
  | Species O :   atomic orbital   2 p accepted.
  | Species O :    hydro orbital   2 p accepted.
  | Species O :    hydro orbital   3 d accepted.
  | Species O :    hydro orbital   3 d accepted.
  | Species O :    hydro orbital   4 f accepted.
  | Species O :    hydro orbital   5 g accepted.
  | Species H :   atomic orbital   1 s accepted.
  | Species H :    hydro orbital   2 s accepted.
  | Species H :    hydro orbital   1 s accepted.
  | Species H :    hydro orbital   2 s accepted.
  | Species H :    hydro orbital   2 p accepted.
  | Species H :    hydro orbital   2 p accepted.
  | Species H :    hydro orbital   3 d accepted.
 
  Basis size parameters after reduction:
  | Total number of radial functions:       29
  | Total number of basis functions :      495
 
  Per-task memory consumption for arrays in subroutine allocate_ext:
  |           9.672428MB.
  Testing on-site integration grid accuracy.
  |  Species  Function  <phi|h_atom|phi> (log., in eV)  <phi|h_atom|phi> (rad., in eV)
           1        1               -273.4529725981               -273.4529710451
           1        2                -10.7721037329                -10.7721022102
           1        3                 17.6044132585                 17.6044162052
           1        4                 53.7706460564                 53.7706913681
           1        5                 15.0973290351                 15.0973256011
           1        6                  3.8545134677                  3.8545724657
           1        7                 12.1156992586                 12.1182024423
           1        8                 29.4352039288                 29.4352041805
           1        9                 54.8741144697                 54.8740268719
           1       10                 59.3556032036                 59.3556031370
           1       11                 93.4551837140                 93.4551837996
           2       12               -515.0401491148               -515.0401445497
           2       13                 15.1629302771                 15.1629233102
           2       14                -21.6127103295                -21.6127145449
           2       15                 14.4001435709                 14.4001765990
           2       16                 20.8862585187                 20.8862589491
           2       17                 -2.4803658578                 -2.4803665016
           2       18                 13.8586387760                 13.8586021622
           2       19                 45.8331828879                 45.8331828941
           2       20                 52.1851961049                 52.1851977023
           2       21                 85.4133898762                 85.4133899074
           2       22                142.1023296234                142.1023296272
           3       23                 -6.4870767962                 -6.4871688290
           3       24                 13.5032046589                 13.5028982997
           3       25                 32.8195184817                 32.8119941656
           3       26                 33.8513856511                 33.7670005767 ***
           3       27                 28.8544614965                 28.8544615203
           3       28                 59.6326952547                 59.6327656460
           3       29                 60.2719308513                 60.2719305949
 * Note: Onsite integrals marked "***" above are less accurate than
 * onsite_accuracy_threshold =    0.03000 eV. Usually, this is harmless.
 * When in doubt, tighten the "radial" and/or "radial_multiplier" flags to check.

  Preparing densities etc. for the partition functions (integrals / Hartree potential).

  Preparations completed.
  max(cpu_time)          :      0.151 s.
  Wall clock time (cpu1) :      0.151 s.
------------------------------------------------------------
  After prepare_scf [GB]:    224.39

  Initializing index lists of integration centers etc. from given atomic structure:
  | Number of centers in hartree potential                       :        17
  | Number of centers in hartree multipole                       :        17
  | Number of centers in electron density summation              :        17
  | Number of centers in basis integrals                         :        17
  | Number of centers in integrals                               :        17
  | Number of centers in hamiltonian                             :        17
  | Number of centers in partition table from touching 0-cell    :        17
  | Number of centers in partition table total                   :        17
  After initialize_bc_dependent_lists [GB]:    224.40

  Initializing index lists of integration centers etc. from given atomic structure:
  | Number of centers in hartree potential                       :        17
  | Number of centers in hartree multipole                       :        17
  | Number of centers in electron density summation              :        17
  | Number of centers in basis integrals                         :        17
  | Number of centers in integrals                               :        17
  | Number of centers in hamiltonian                             :        17
  | Number of centers in partition table from touching 0-cell    :        17
  | Number of centers in partition table total                   :        17

------------------------------------------------------------
          Begin self-consistency loop: Initialization.

          Date     :  20251111, Time     :  183110.795
------------------------------------------------------------
  Available memory per node after initialize_hartree_non_periodic_ewald [GB]:    224.40
  Available memory per node after initialize_recip_hartree_potential [GB]:    224.40
  * Using 64 tasks for Scalapack Eigenvalue solver.
  Detailed listing of tasks and assigned k-points:
  (for non-periodic systems, the "k-point" denotes an internal label only)
   Task     0 k-point     1 on cca9065
   Task     1 k-point     1 on cca9065
   Task     2 k-point     1 on cca9065
   Task     3 k-point     1 on cca9065
   Task     4 k-point     1 on cca9065
   Task     5 k-point     1 on cca9065
   Task     6 k-point     1 on cca9065
   Task     7 k-point     1 on cca9065
   Task     8 k-point     1 on cca9065
   Task     9 k-point     1 on cca9065
   Task    10 k-point     1 on cca9065
   Task    11 k-point     1 on cca9065
   Task    12 k-point     1 on cca9065
   Task    13 k-point     1 on cca9065
   Task    14 k-point     1 on cca9065
   Task    15 k-point     1 on cca9065
   Task    16 k-point     1 on cca9065
   Task    17 k-point     1 on cca9065
   Task    18 k-point     1 on cca9065
   Task    19 k-point     1 on cca9065
   Task    20 k-point     1 on cca9065
   Task    21 k-point     1 on cca9065
   Task    22 k-point     1 on cca9065
   Task    23 k-point     1 on cca9065
   Task    24 k-point     1 on cca9065
   Task    25 k-point     1 on cca9065
   Task    26 k-point     1 on cca9065
   Task    27 k-point     1 on cca9065
   Task    28 k-point     1 on cca9065
   Task    29 k-point     1 on cca9065
   Task    30 k-point     1 on cca9065
   Task    31 k-point     1 on cca9065
   Task    32 k-point     1 on cca9065
   Task    33 k-point     1 on cca9065
   Task    34 k-point     1 on cca9065
   Task    35 k-point     1 on cca9065
   Task    36 k-point     1 on cca9065
   Task    37 k-point     1 on cca9065
   Task    38 k-point     1 on cca9065
   Task    39 k-point     1 on cca9065
   Task    40 k-point     1 on cca9065
   Task    41 k-point     1 on cca9065
   Task    42 k-point     1 on cca9065
   Task    43 k-point     1 on cca9065
   Task    44 k-point     1 on cca9065
   Task    45 k-point     1 on cca9065
   Task    46 k-point     1 on cca9065
   Task    47 k-point     1 on cca9065
   Task    48 k-point     1 on cca9065
   Task    49 k-point     1 on cca9065
   Task    50 k-point     1 on cca9065
   Task    51 k-point     1 on cca9065
   Task    52 k-point     1 on cca9065
   Task    53 k-point     1 on cca9065
   Task    54 k-point     1 on cca9065
   Task    55 k-point     1 on cca9065
   Task    56 k-point     1 on cca9065
   Task    57 k-point     1 on cca9065
   Task    58 k-point     1 on cca9065
   Task    59 k-point     1 on cca9065
   Task    60 k-point     1 on cca9065
   Task    61 k-point     1 on cca9065
   Task    62 k-point     1 on cca9065
   Task    63 k-point     1 on cca9065
  Tasks:    64 split into      8 X      8 BLACS grid
  Calculating block size based on n_basis =          495  max_nprow =            8  max_npcol =            8
  ScaLAPACK block size set to:           16
  Allocating        0.031 MB for ovlp
  Allocating        0.031 MB for ham
  Allocating        0.031 MB for eigenvec
  Required Scalapack workspace - INTEGER:            1  REAL:             1
  Available memory per node after initialize_scalapack [GB]:    224.40
  Available memory per node after aims_elsi_init_scf [GB]:    224.40
  Available memory per node after initialize_fixed_grids [GB]:    224.40
  Partitioning the integration grid into batches with parallel hashing+maxmin method.
  | Number of batches:     2832
  | Maximal batch size:     200
  | Minimal batch size:       5
  | Average batch size:     102.461
  | Standard deviation of batch sizes:      33.595

  Integration load balanced across    64 MPI tasks.
  Work distribution over tasks is as follows:
  Task     0 has       4490 integration points.
  Task     1 has       4558 integration points.
  Task     2 has       4485 integration points.
  Task     3 has       4530 integration points.
  Task     4 has       4555 integration points.
  Task     5 has       4484 integration points.
  Task     6 has       4489 integration points.
  Task     7 has       4592 integration points.
  Task     8 has       4533 integration points.
  Task     9 has       4623 integration points.
  Task    10 has       4526 integration points.
  Task    11 has       4503 integration points.
  Task    12 has       4613 integration points.
  Task    13 has       4553 integration points.
  Task    14 has       4550 integration points.
  Task    15 has       4483 integration points.
  Task    16 has       4512 integration points.
  Task    17 has       4485 integration points.
  Task    18 has       4550 integration points.
  Task    19 has       4619 integration points.
  Task    20 has       4598 integration points.
  Task    21 has       4602 integration points.
  Task    22 has       4495 integration points.
  Task    23 has       4527 integration points.
  Task    24 has       4546 integration points.
  Task    25 has       4594 integration points.
  Task    26 has       4556 integration points.
  Task    27 has       4493 integration points.
  Task    28 has       4538 integration points.
  Task    29 has       4561 integration points.
  Task    30 has       4566 integration points.
  Task    31 has       4540 integration points.
  Task    32 has       4492 integration points.
  Task    33 has       4533 integration points.
  Task    34 has       4624 integration points.
  Task    35 has       4533 integration points.
  Task    36 has       4487 integration points.
  Task    37 has       4535 integration points.
  Task    38 has       4482 integration points.
  Task    39 has       4481 integration points.
  Task    40 has       4559 integration points.
  Task    41 has       4551 integration points.
  Task    42 has       4491 integration points.
  Task    43 has       4550 integration points.
  Task    44 has       4495 integration points.
  Task    45 has       4489 integration points.
  Task    46 has       4480 integration points.
  Task    47 has       4538 integration points.
  Task    48 has       4620 integration points.
  Task    49 has       4497 integration points.
  Task    50 has       4537 integration points.
  Task    51 has       4495 integration points.
  Task    52 has       4619 integration points.
  Task    53 has       4492 integration points.
  Task    54 has       4486 integration points.
  Task    55 has       4539 integration points.
  Task    56 has       4485 integration points.
  Task    57 has       4562 integration points.
  Task    58 has       4488 integration points.
  Task    59 has       4536 integration points.
  Task    60 has       4483 integration points.
  Task    61 has       4554 integration points.
  Task    62 has       4623 integration points.
  Task    63 has       4485 integration points.
  Available memory per node after partition_grid [GB]:    224.40
  Initializing partition tables, free-atom densities, potentials, etc. across the integration grid (initialize_grid_storage).
  | initialize_grid_storage: Actual outermost partition radius vs. multipole_radius_free
  | (-- VB: in principle, multipole_radius_free should be larger, hence this output)
  | Species        1: Confinement radius =              6.000000000000000 AA, multipole_radius_free =              6.029870734432609 AA.
  | Species        1: outer_partition_radius set to              6.029870734432609 AA .
  | Species        2: Confinement radius =              6.000000000000000 AA, multipole_radius_free =              6.064445521808699 AA.
  | Species        2: outer_partition_radius set to              6.064445521808699 AA .
  | Species        3: Confinement radius =              6.000000000000000 AA, multipole_radius_free =              6.071692442739658 AA.
  | Species        3: outer_partition_radius set to              6.071692442739658 AA .
  | The sparse table of interatomic distances needs          3.34 kbyte instead of         2.31 kbyte of memory.
  | Using the partition_type stratmann_smoother will reduce your memory usage.
  | Net number of integration points:   290170
  | of which are non-zero points    :   241898
  Available memory per node after initialize_grid_storage_p1 [GB]:    224.41
  Renormalizing the initial density to the exact electron count on the 3D integration grid.
  | Initial density: Formal number of electrons (from input files) :      46.0000000000
  | Integrated number of electrons on 3D grid     :      45.9999991710
  | Charge integration error                      :      -0.0000008290
  | Normalization factor for density and gradient :       1.0000000180
  Renormalizing the free-atom superposition density to the exact electron count on the 3D integration grid.
  | Formal number of electrons (from input files) :      48.0000000000
  | Integrated number of electrons on 3D grid     :      45.9999991710
  | Charge integration error                      :      -0.0000008290
  | Normalization factor for density and gradient :       1.0000000180
  Obtaining max. number of non-zero basis functions in each batch (get_n_compute_maxes).
  | Maximal number of non-zero basis functions:      453 in task     0
  | Maximal number of non-zero basis functions:      440 in task     1
  | Maximal number of non-zero basis functions:      458 in task     2
  | Maximal number of non-zero basis functions:      432 in task     3
  | Maximal number of non-zero basis functions:      430 in task     4
  | Maximal number of non-zero basis functions:      445 in task     5
  | Maximal number of non-zero basis functions:      439 in task     6
  | Maximal number of non-zero basis functions:      433 in task     7
  | Maximal number of non-zero basis functions:      440 in task     8
  | Maximal number of non-zero basis functions:      424 in task     9
  | Maximal number of non-zero basis functions:      460 in task    10
  | Maximal number of non-zero basis functions:      429 in task    11
  | Maximal number of non-zero basis functions:      448 in task    12
  | Maximal number of non-zero basis functions:      460 in task    13
  | Maximal number of non-zero basis functions:      458 in task    14
  | Maximal number of non-zero basis functions:      432 in task    15
  | Maximal number of non-zero basis functions:      433 in task    16
  | Maximal number of non-zero basis functions:      433 in task    17
  | Maximal number of non-zero basis functions:      440 in task    18
  | Maximal number of non-zero basis functions:      445 in task    19
  | Maximal number of non-zero basis functions:      429 in task    20
  | Maximal number of non-zero basis functions:      430 in task    21
  | Maximal number of non-zero basis functions:      457 in task    22
  | Maximal number of non-zero basis functions:      448 in task    23
  | Maximal number of non-zero basis functions:      444 in task    24
  | Maximal number of non-zero basis functions:      434 in task    25
  | Maximal number of non-zero basis functions:      437 in task    26
  | Maximal number of non-zero basis functions:      433 in task    27
  | Maximal number of non-zero basis functions:      453 in task    28
  | Maximal number of non-zero basis functions:      458 in task    29
  | Maximal number of non-zero basis functions:      448 in task    30
  | Maximal number of non-zero basis functions:      430 in task    31
  | Maximal number of non-zero basis functions:      424 in task    32
  | Maximal number of non-zero basis functions:      454 in task    33
  | Maximal number of non-zero basis functions:      431 in task    34
  | Maximal number of non-zero basis functions:      439 in task    35
  | Maximal number of non-zero basis functions:      429 in task    36
  | Maximal number of non-zero basis functions:      460 in task    37
  | Maximal number of non-zero basis functions:      427 in task    38
  | Maximal number of non-zero basis functions:      430 in task    39
  | Maximal number of non-zero basis functions:      439 in task    40
  | Maximal number of non-zero basis functions:      436 in task    41
  | Maximal number of non-zero basis functions:      433 in task    42
  | Maximal number of non-zero basis functions:      447 in task    43
  | Maximal number of non-zero basis functions:      417 in task    44
  | Maximal number of non-zero basis functions:      424 in task    45
  | Maximal number of non-zero basis functions:      440 in task    46
  | Maximal number of non-zero basis functions:      435 in task    47
  | Maximal number of non-zero basis functions:      445 in task    48
  | Maximal number of non-zero basis functions:      427 in task    49
  | Maximal number of non-zero basis functions:      453 in task    50
  | Maximal number of non-zero basis functions:      443 in task    51
  | Maximal number of non-zero basis functions:      428 in task    52
  | Maximal number of non-zero basis functions:      419 in task    53
  | Maximal number of non-zero basis functions:      447 in task    54
  | Maximal number of non-zero basis functions:      459 in task    55
  | Maximal number of non-zero basis functions:      437 in task    56
  | Maximal number of non-zero basis functions:      453 in task    57
  | Maximal number of non-zero basis functions:      429 in task    58
  | Maximal number of non-zero basis functions:      430 in task    59
  | Maximal number of non-zero basis functions:      435 in task    60
  | Maximal number of non-zero basis functions:      428 in task    61
  | Maximal number of non-zero basis functions:      449 in task    62
  | Maximal number of non-zero basis functions:      454 in task    63
  Available memory per node after get_n_compute_maxes_p1 [GB]:    224.41
  Hamiltonian matrix size:
  | Size of matrix non-packed:                122760
  | Size of matrix packed:          120281
  Allocating        1.869 MB for KS_eigenvector
  Available memory per node after allocate_matrices [GB]:    224.37
  Available memory per node after init_comm_sparse_local_matrix_scalapack [GB]:    224.37
  Integrating Hamiltonian matrix: batch-based integration.
  Time summed over all CPUs for integration: real work        4.669 s, elapsed        5.202 s
  Available memory per node after integrate hamiltonian matrix [GB]:    224.29
  Integrating overlap matrix.
  Time summed over all CPUs for integration: real work        2.555 s, elapsed        2.859 s
  Available memory per node after integrate ovlp matrix [GB]:    224.29
  Not deallocating overlap matrix.
  Available memory per node after save_overlap_scalapack [GB]:    224.29
  Available memory per node after advance_KS_solution [GB]:    224.29
  Calculating total energy contributions from superposition of free atom densities.
  Initialize hartree_potential_storage
  Max. number of atoms included in rho_multipole:           17

  End scf initialization - timings             :  max(cpu_time)    wall_clock(cpu1)
  | Time for scf. initialization                :        0.306 s           0.306 s
  | Boundary condition initialization           :        0.007 s           0.006 s
  | Integration                                 :        0.137 s           0.137 s
  | Grid partitioning                           :        0.131 s           0.131 s
  | Preloading free-atom quantities on grid     :        0.033 s           0.032 s
  | Free-atom superposition energy              :        0.004 s           0.004 s

  Partial memory accounting:
  | Current value for overall tracked memory usage:
  |   Minimum:        4.235 MB (on task 63)
  |   Maximum:        4.290 MB (on task  0)
  |   Average:        4.282 MB
  | Peak value for overall tracked memory usage:
  |   Minimum:        7.504 MB (on task 44 after allocating wave)
  |   Maximum:        7.989 MB (on task 10 after allocating wave)
  |   Average:        7.750 MB
  | Largest tracked array allocation so far:
  |   Minimum:        1.869 MB (KS_eigenvector on task  0)
  |   Maximum:        1.869 MB (KS_eigenvector on task  0)
  |   Average:        1.869 MB
  Note:  These values currently only include a subset of arrays which are explicitly tracked.
  The "true" memory usage will be greater.
------------------------------------------------------------
  Available memory after allocating mixing [GB]:    224.28
  Evaluating new KS density using the density matrix
  Evaluating density matrix
  Finished reading density matrices from file
  | Time :      0.000 s

  Time summed over all CPUs for getting density from density matrix: real work       10.509 s, elapsed       11.671 s
  Integration grid: deviation in total charge (<rho> - N_e) =  -1.155076E-02

  Time for density update prior                :  max(cpu_time)    wall_clock(cpu1)
  | self-consistency iterative process          :        0.188 s           0.188 s
  Available memory before start of SCF loop [GB]:    224.08

------------------------------------------------------------
          Initial SCF-cycle to compute last known
          density from restart information.

  Date     :  20251111, Time     :  183111.291
------------------------------------------------------------
  Available memory per node after mixing [GB]:    224.08
  Renormalizing the density to the exact electron count on the 3D integration grid.
  | Formal number of electrons (from input files) :      48.0000000000
  | Integrated number of electrons on 3D grid     :      47.9884492389
  | Charge integration error                      :      -0.0115507611
  | Normalization factor for density and gradient :       1.0002406988

  Evaluating partitioned Hartree potential by multipole expansion.
  | Original multipole sum: apparent total charge =  -0.200000E+01
  | Sum of charges compensated after spline to logarithmic grids =  -0.115273E-05
  | Analytical far-field extrapolation by fixed multipoles:
  | Hartree multipole sum: apparent total charge =  -0.200000E+01
  Summing up the Hartree potential.
  Time summed over all CPUs for potential: real work        0.024 s, elapsed        0.024 s
  | RMS charge density error from multipole expansion :   0.920507E-02

  Integrating Hamiltonian matrix: batch-based integration.
  Time summed over all CPUs for integration: real work        4.631 s, elapsed        5.161 s

  Updating Kohn-Sham eigenvalues and eigenvectors using ELSI and the ELPA eigensolver.
  Overlap matrix is not singular
  | Lowest and highest eigenvalues :  0.1536E-03,  0.8075E+01
  Finished singularity check of overlap matrix
  | Time :     0.010 s
  Starting ELPA eigensolver
  Finished Cholesky decomposition
  | Time :     0.003 s
  Finished transformation to standard eigenproblem
  | Time :     0.001 s
  Finished solving standard eigenproblem
  | Time :     0.015 s
  Finished back-transformation of eigenvectors
  | Time :     0.001 s

  Obtaining occupation numbers and electronic chemical potential using ELSI.
  | Note that, for insulating systems, the printed 'chemical potential' value is not uniquely defined.
  | It can be anywhere in the energy gap, as long as it correctly separates occupied and unoccupied states.
  | In systems with a gap, the physically relevant chemical potential is the VBM or HOMO.

  | Chemical potential (Fermi level):  -186.70456130 eV
  Writing Kohn-Sham eigenvalues.

  State    Occupation    Eigenvalue [Ha]    Eigenvalue [eV]
      1       2.00000        -377.006916       -10258.88016
      2       2.00000        -302.684618        -8236.46751
      3       2.00000        -260.170637        -7079.60323
      4       2.00000        -134.997468        -3673.46801
      5       2.00000        -103.429207        -2814.45192
      6       2.00000         -94.594132        -2574.03730
      7       2.00000         -77.884140        -2119.33529
      8       2.00000         -60.906293        -1657.34456
      9       2.00000         -46.905308        -1276.35837
     10       2.00000         -30.970033         -842.73747
     11       2.00000         -24.151418         -657.19353
     12       2.00000         -22.199094         -604.06809
     13       2.00000         -19.880724         -540.98202
     14       2.00000         -19.183811         -522.01805
     15       2.00000         -18.550126         -504.77460
     16       2.00000         -18.487333         -503.06593
     17       2.00000         -18.440664         -501.79599
     18       2.00000         -18.154552         -494.01050
     19       2.00000         -14.825388         -403.41933
     20       2.00000         -12.263647         -333.71082
     21       2.00000         -10.062829         -273.82352
     22       2.00000          -9.581426         -260.72387
     23       2.00000          -8.883610         -241.73532
     24       2.00000          -7.350445         -200.01579
     25       0.00000          -6.859369         -186.65293
     26       0.00000          -6.572657         -178.85108
     27       0.00000          -6.333730         -172.34957
     28       0.00000          -4.813753         -130.98888
     29       0.00000          -3.986071         -108.46650
     30       0.00000          -3.398748          -92.48464
     31       0.00000          -2.847989          -77.49771
     32       0.00000          -1.846773          -50.25325
     33       0.00000          -1.730163          -47.08013
     34       0.00000          -1.583680          -43.09412
     35       0.00000          -1.377882          -37.49407
     36       0.00000          -0.958634          -26.08576
     37       0.00000          -0.778805          -21.19237
     38       0.00000          -0.700532          -19.06246
     39       0.00000          -0.646187          -17.58364
     40       0.00000          -0.610152          -16.60309
     41       0.00000          -0.566114          -15.40473
     42       0.00000          -0.495758          -13.49027
     43       0.00000          -0.405221          -11.02662
     44       0.00000          -0.342981           -9.33299
     45       0.00000          -0.256776           -6.98722
     46       0.00000          -0.234336           -6.37660
     47       0.00000          -0.173240           -4.71410
     48       0.00000          -0.145412           -3.95687
     49       0.00000          -0.137502           -3.74162
     50       0.00000          -0.090511           -2.46294
     51       0.00000          -0.067120           -1.82642
     52       0.00000          -0.060364           -1.64260
     53       0.00000          -0.036263           -0.98676
     54       0.00000          -0.006919           -0.18827
     55       0.00000           0.012580            0.34231
     56       0.00000           0.030246            0.82304
     57       0.00000           0.096217            2.61821
     58       0.00000           0.102385            2.78604
     59       0.00000           0.115610            3.14590
     60       0.00000           0.161222            4.38708
     61       0.00000           0.193119            5.25503
     62       0.00000           0.217226            5.91103
     63       0.00000           0.240130            6.53426
     64       0.00000           0.260111            7.07798
     65       0.00000           0.263473            7.16947
     66       0.00000           0.287239            7.81617
     67       0.00000           0.307602            8.37027
     68       0.00000           0.323628            8.80636
     69       0.00000           0.333520            9.07554
     70       0.00000           0.342772            9.32731
     71       0.00000           0.353903            9.63020
     72       0.00000           0.368181           10.01871
     73       0.00000           0.379983           10.33988
     74       0.00000           0.407356           11.08472
     75       0.00000           0.415285           11.30047
     76       0.00000           0.439269           11.95312
     77       0.00000           0.443005           12.05478
     78       0.00000           0.464221           12.63210
     79       0.00000           0.465926           12.67850
     80       0.00000           0.479652           13.05201
     81       0.00000           0.494851           13.46559
     82       0.00000           0.516202           14.04657
     83       0.00000           0.526203           14.31872
[...]
  | Number of local auxiliary basis functions on task:     38    64
  | Number of local auxiliary basis functions on task:     39    64
  | Number of local auxiliary basis functions on task:     40    64
  | Number of local auxiliary basis functions on task:     41    64
  | Number of local auxiliary basis functions on task:     42    64
  | Number of local auxiliary basis functions on task:     43    64
  | Number of local auxiliary basis functions on task:     44    64
  | Number of local auxiliary basis functions on task:     45    64
  | Number of local auxiliary basis functions on task:     46    64
  | Number of local auxiliary basis functions on task:     47    64
  | Number of local auxiliary basis functions on task:     48    64
  | Number of local auxiliary basis functions on task:     49    64
  | Number of local auxiliary basis functions on task:     50    64
  | Number of local auxiliary basis functions on task:     51    64
  | Number of local auxiliary basis functions on task:     52    64
  | Number of local auxiliary basis functions on task:     53    64
  | Number of local auxiliary basis functions on task:     54    64
  | Number of local auxiliary basis functions on task:     55    64
  | Number of local auxiliary basis functions on task:     56    64
  | Number of local auxiliary basis functions on task:     57    64
  | Number of local auxiliary basis functions on task:     58    64
  | Number of local auxiliary basis functions on task:     59    64
  | Number of local auxiliary basis functions on task:     60    64
  | Number of local auxiliary basis functions on task:     61    54
  | Number of local auxiliary basis functions on task:     62    48
  | Number of local auxiliary basis functions on task:     63    48
  | 2D aux task distribution:      8 X      8
  | 2D block size (nb_aux_2d):     64
  Minimal free memory per node after shrink_svd_auxil [GB]:    222.82
  Minimal free memory per node after allocate_basis_pairs [GB]:    222.82
 
  Basis pair condensation :    122760  -->     120280
  | Tensor "coeff3fn" needs     18 MiB per node.
  |   It stores   7.05E+07 numbers. Per node: min:  6.08E+04; avg:  1.10E+06; max:  2.34E+06
  |   It stores   3.21E+02 blocks.  Per node: min:  3.00E+00; avg:  5.02E+00; max:  1.00E+01

  The resident memory for O3fn + V2fn is      20 MiB x   64 procs =       1.237 GiB
  | Part O3fn (temporarily alloced  2x) is     18 MiB x   64 procs =       1.114 GiB
  | Part V2fn (temporarily alloced ~3x) is      2 MiB x   64 procs =       0.124 GiB
  | Original full ovlp_3fn would have been     59 MiB x   64 procs =       3.671 GiB

  Integrating the Coulomb interaction matrix for auxiliary basis functions (by atoms)

  SBT integration errors (all should be 'small'):
  large logFT aliasing -> increase N/lnrange
  large SBT aliasing -> decrease lnk0 & increase lnk0+lnrange
  large SBT ringing -> decrease lnr0 & increase lnr0+lnrange
  |            El't  L: logFT-al.   small-k   large-k   small-r   large-r
  Atomic logSBT for 2-center Coulomb matrix    :  max(cpu_time)    wall_clock(cpu1)
  | Multiplication with kernel                  :        0.032 s           0.039 s
  | Main matrix multiplication                  :        0.407 s           0.315 s
  | Analytic angular integration                :        0.326 s           0.303 s
  | Kernel construction                         :        0.037 s           0.030 s
  | Overall 2-center overlap time               :        1.391 s           1.228 s


  Get 3-center expansion coefficients

  | Storage requirements for basis-basbas products (processor-local):
  |   Species C: n_prodsfn:  1141; storage:       35.66 MiB.
  |   Species O: n_prodsfn:  1094; storage:       34.19 MiB.
  |   Species H: n_prodsfn:   243; storage:        7.59 MiB.

  Preparing TB like auxiliary 2-center Coulomb matrix
  SBT integration errors (all should be 'small'):
  large logFT aliasing -> increase N/lnrange
  large SBT aliasing -> decrease lnk0 & increase lnk0+lnrange
  large SBT ringing -> decrease lnr0 & increase lnr0+lnrange
  |            El't  L: logFT-al.   small-k   large-k   small-r   large-r
  | Need to store 20585 splines of   220 points taking      35704 KiB.
  | Spline reduction from  4096 to   220 points by (cutting and)     1 x coarsening gives error:  0.00E+00
  get_coeff3fn_ten: Temporary array needs    129 MiB buffer space on CPU 0.
  Atomic logSBT for LVL-triples                :  max(cpu_time)    wall_clock(cpu1)
  | Multiplication with kernel                  :        0.005 s           0.003 s
  | Main matrix multiplication                  :        0.479 s           0.289 s
  | Analytic angular integration                :        0.012 s           0.006 s
  | Kernel construction                         :        0.004 s           0.001 s
  | Overall 2-center overlap time               :        0.544 s           0.329 s
  | 3-center preparation multiplications        :        0.070 s           0.050 s
  | 3-center preparation SBTs                   :        1.577 s           0.972 s
  | 3-center combinations                       :        0.654 s           0.391 s
  | Overal 3-center time                        :        2.308 s           1.418 s
  | LVL initialization                          :        0.117 s           0.118 s
  | Whole LVL-triples                           :        0.117 s           0.118 s

  Atomic logSBT for 2-center Coulomb matrix    :  max(cpu_time)    wall_clock(cpu1)
  | TB initialization                           :        0.239 s           0.239 s
  | TB usage                                    :        0.004 s           0.003 s

  Redistribute 3-center expansion coefficients

  | Redistributing coeff3fn to final_coeff3fn according to 3fn-1D-blocking.

  LVL product basis initialization             :  max(cpu_time)    wall_clock(cpu1)
  | 3-center integration                        :        3.631 s           3.632 s
  | 3-center distribution                       :        0.253 s           0.253 s
  | 2-center integration                        :        1.509 s           1.509 s
  | 2-center distribution                       :        0.000 s           0.000 s

  End of correlation preparation               :  max(cpu_time)    wall_clock(cpu1)
  | Product basis setup: Total time             :        5.614 s           5.614 s
  | Product basis: | 2-center integrations      :        1.509 s           1.509 s
  | Product basis: | LVL 3-center & coefficient :        3.885 s           3.885 s

--------------------------------------------
          RPA total energy calculation starts ...

  The ovlp_3KS matrix takes another     10 MiB x     64 procs =       0.599 GiB.

  Calculating RI-LVL ovlp_3KS
  | Using bunches of    23 states for ovlp_3KS construction.
  | Need      62 MiB per proc for ovlp_3KS construction buffers.
  
  Diagonalizing the Coulomb matrix and checking for singularities with ScaLapack .
 
  Difference of Coulomb matrix to its transposed:  4.4409E-16
  Eigenvalues of the Coulomb matrix range from    1.4021E+01 to    6.3852E-11.
  Using     3871   eigenvalues out of rank     4054   Coulomb matrix (auxiliary basis).
  Still using eigenvalue     1.0078E-05 while cutting     9.4926E-06 in Coulomb matrix.
 
  | Maximum charge error:  3.04E-01

  ovlp_3KS timings:                            :  max(cpu_time)    wall_clock(cpu1)
  | Time for V^0.5                              :        0.897 s           0.895 s
  | Time for fnfnbb -> fnKSbb                   :        0.043 s           0.042 s
  | Time for fnKSbb -> KSKSbb                   :        0.082 s           0.082 s
  | Time for KSKSbb -> KSKSon                   :        1.134 s           1.134 s
  | Time for synchronization                    :        0.840 s           0.840 s

  Initialising transformed Gauss-Legendre time and frequency grids
  Number of frequency points for self energy.....: 50
  Number of frequency points....................: 50
 
  Starts to calculate the exchange energy ...
 
  Integrating the xc potential matrix  for basis functions ...

  Starts to calculate the single excitation correction ...
 
  | Single excitation contribution to the correlation energy: -25.40844494 Ha -691.39896491 eV
  | Renormalized single excitation contribution (diag) to the correlation energy: -24.11111440 Ha -656.09680456  eV
 

  Starts to calculate the renormalized single excitation (full) correction ...
 
  | Renormalized single excitation contribution (full) to the correlation energy:-746.94155598  eV
 
 
 ----------------------------------------------------------------------
  Start to calculate the RPA correlation energy  ... 
  HOMO and first non-fully-occupied orbitals:   24   25
 
 | i_freq    1            0.000284
 | i_freq    2            0.001496
 | i_freq    3            0.003688
 | i_freq    4            0.006877
 | i_freq    5            0.011088
 | i_freq    6            0.016354
 | i_freq    7            0.022718
 | i_freq    8            0.030232
 | i_freq    9            0.038959
 | i_freq   10            0.048973
 | i_freq   11            0.060364
 | i_freq   12            0.073232
 | i_freq   13            0.087699
 | i_freq   14            0.103902
 | i_freq   15            0.122005
 | i_freq   16            0.142195
 | i_freq   17            0.164691
 | i_freq   18            0.189747
 | i_freq   19            0.217662
 | i_freq   20            0.248783
 | i_freq   21            0.283522
 | i_freq   22            0.322364
 | i_freq   23            0.365883
 | i_freq   24            0.414767
 | i_freq   25            0.469840
 | i_freq   26            0.532096
 | i_freq   27            0.602748
 | i_freq   28            0.683279
 | i_freq   29            0.775522
 | i_freq   30            0.881765
 | i_freq   31            1.004891
 | i_freq   32            1.148572
 | i_freq   33            1.317542
 | i_freq   34            1.517993
 | i_freq   35            1.758143
 | i_freq   36            2.049089
 | i_freq   37            2.406102
 | i_freq   38            2.850673
 | i_freq   39            3.413807
 | i_freq   40            4.141574
 | i_freq   41            5.104818
 | i_freq   42            6.417053
 | i_freq   43            8.269467
 | i_freq   44           11.004641
 | i_freq   45           15.286969
 | i_freq   46           22.547292
 | i_freq   47           36.351938
 | i_freq   48           67.778420
 | i_freq   49          167.059463
 | i_freq   50          881.648817
 
 ------------------------------------------------------------------------------
    RPA correlation energy :          -5.41871023  Ha,      -147.45060756  eV
 
 --------------------------------------------------------------------
    Exact exchange energy             :         -198.30053872 Ha,       -5396.03220555 eV
    DFT/HF exchange energy            :          -37.67368915 Ha,       -1025.15324106 eV
 
    DFT/HF total energy               :        -3576.17701425 Ha,      -97312.72777490 eV
    Exchange-only total energy        :        -3729.99992969 Ha,     -101498.46227183 eV
    RPA total energy                  :        -3735.41863992 Ha,     -101645.91287940 eV
 
    RPA+SE total energy               :        -3760.82708487 Ha,     -102337.31184431 eV
    RPA+rSE (diag) total energy       :        -3759.52975432 Ha,     -102302.00968396 eV
    RPA+rSE total energy              :        -3762.86823757 Ha,     -102392.85443538 eV
 
    RPA+ total energy                 :        -3734.53877163 Ha,     -101621.97044501 eV
 
 ----------------------------------------------------------------------------
 

------------------------------------------------------------------------------
  Final output of selected total energy values:

  The following output summarizes some interesting total energy values
  at the end of a run (AFTER all relaxation, molecular dynamics, etc.).

  | Total energy of the DFT / Hartree-Fock s.c.f. calculation      :         -97312.727774897 eV
  | Final zero-broadening corrected energy (caution - metals only) :         -97312.727774897 eV
  | Total energy after the post-s.c.f. correlation calculation     :        -101645.912879396 eV
  | For reference only, the value of 1 Hartree used in FHI-aims is :             27.211384500 eV

  Before relying on these values, please be sure to understand exactly which
  total energy value is referred to by a given number. Different objects may
  all carry the same name 'total energy'. Definitions:

  Total energy of the DFT / Hartree-Fock s.c.f. calculation:
  | Note that this energy does not include ANY quantities calculated after the
  | s.c.f. cycle, in particular not ANY RPA, MP2, etc. many-body perturbation terms.

  Final zero-broadening corrected energy:
  | For metallic systems only, a broadening of the occupation numbers at the Fermi
  | level can be extrapolated back to zero broadening by an electron-gas inspired
  | formula. For all systems that are not real metals, this value can be
  | meaningless and should be avoided.

  Total energy of the post-s.c.f. correlation calculation        :
  | Resolution of identity used for the 2-electron Coulomb operator:          RI_LVL_fast
  | The actual meaning of this energy depends on the setting for the 'total_energy_method'
  | keyword (MP2, RPA, rPT2, etc). If not sure, compare to the results listed above.

------------------------------------------------------------------------------
  Methods described in the following list of references were used in this FHI-aims run.
  If you publish the results, please make sure to cite these reference if they apply.
  FHI-aims is an academic code, and for our developers (often, Ph.D. students
  and postdocs), scientific credit in the community is essential.
  Thank you for helping us!

  For any use of FHI-aims, please cite:

    Volker Blum, Ralf Gehrke, Felix Hanke, Paula Havu, Ville Havu,
    Xinguo Ren, Karsten Reuter, and Matthias Scheffler
    'Ab initio molecular simulations with numeric atom-centered orbitals'
    Computer Physics Communications 180, 2175-2196 (2009)
    http://doi.org/10.1016/j.cpc.2009.06.022


  For Hartree-Fock, hybrid functionals, or many-body perturbation theory used in your run, please cite:

    Xinguo Ren, Patrick Rinke, Volker Blum, Juergen Wieferink, Alex Tkatchenko,
    Andrea Sanfilippo, Karsten Reuter, and Matthias Scheffler,
    'Resolution-of-identity approach to Hartree-Fock, hybrid density functionals,
    RPA, MP2, and GW with numeric atom-centered orbital basis functions'
    New Journal of Physics 14, 053020 (2012).
    http://doi.org/10.1088/1367-2630/14/5/053020


  The ELSI infrastructure was used in your run to solve the Kohn-Sham electronic structure.
  Please check out https://wordpress.elsi-interchange.org to learn more.
  If scalability is important for your project, please acknowledge ELSI by citing:

    V. W-z. Yu, F. Corsetti, A. Garcia, W. P. Huhn, M. Jacquelin, W. Jia,
    B. Lange, L. Lin, J. Lu, W. Mi, A. Seifitokaldani, A. Vazquez-Mayagoitia,
    C. Yang, H. Yang, and V. Blum
    'ELSI: A unified software interface for Kohn-Sham electronic structure solvers'
    Computer Physics Communications 222, 267-285 (2018).
    http://doi.org/10.1016/j.cpc.2017.09.007


  For the real-space grid partitioning and parallelization used in this calculation, please cite:

    Ville Havu, Volker Blum, Paula Havu, and Matthias Scheffler,
    'Efficient O(N) integration for all-electron electronic structure calculation'
    'using numerically tabulated basis functions'
    Journal of Computational Physics 228, 8367-8379 (2009).
    http://doi.org/10.1016/j.jcp.2009.08.008


  The high-level electronic structure method used in your calculation
  employed our efficient localized resolution of identity for the Coulomb operator.
  Some calculations, especially large-scale hybrid density functional theory,
  are only possible thanks to this development. For this feature, please cite:

    Arvid Ihrig, Juergen Wieferink, Igor Ying Zhang, Matti Ropo, Xinguo Ren,
    Patrick Rinke, Matthias Scheffler, and Volker Blum,
    'Accurate localized resolution of identity approach for linear-scaling
    hybrid density functionals and for many-body perturbation theory'
    New Journal of Physics 117, 093020 (2015).
    http://doi.org/10.1088/1367-2630/17/9/093020

  Of course, there are many other important community references, e.g., those cited in the
  above references. Our list is limited to references that describe implementations in the
  FHI-aims code. The reason is purely practical (length of this list) - please credit others as well.
------------------------------------------------------------
Warnings summary:

At least    2 warnings were raised during execution.

------------------------------------------------------------
          Leaving FHI-aims.
          Date     :  20251111, Time     :  183138.445

          Computational steps:
          | Number of self-consistency cycles          :           13
          | Number of SCF (re)initializations          :            1

          Detailed time accounting                     :  max(cpu_time)    wall_clock(cpu1)
          | Total time                                  :       27.561 s          27.850 s
          | Preparation time                            :        0.151 s           0.151 s
          | Boundary condition initalization            :        0.007 s           0.006 s
          | Grid partitioning                           :        0.131 s           0.131 s
          | Preloading free-atom quantities on grid     :        0.033 s           0.032 s
          | Free-atom superposition energy              :        0.004 s           0.004 s
          | Total time for integrations                 :        1.317 s           1.316 s
          | Product basis setup: Total time             :        0.000 s           0.000 s
          | Product basis: | 2-center integrations     :(       1.509 s)  (       1.509 s)
          | Product basis: | LVL 3-center & coefficient:(       3.885 s)  (       3.885 s)
          | Transforming ovlp_3fn to ovlp_3KS           :        3.011 s           3.012 s
          | Total time for evaluating polarisability    :        9.905 s           9.685 s
          | Total time for RPA corr. energy             :        3.085 s           3.056 s
          | Total time for solution of K.-S. equations  :        0.398 s           0.398 s
          | Total time for density update               :        2.576 s           2.575 s
          | Total time for mixing                       :        0.170 s           0.099 s
          | Total time for Hartree multipole update     :        0.033 s           0.031 s
          | Total time for Hartree multipole sum        :        0.359 s           0.359 s
          | Total time for total energy evaluation      :        0.001 s           0.001 s
          | Total time for scaled ZORA corrections      :        0.000 s           0.000 s
          | Total time for Mulliken analysis            :        0.000 s           0.000 s

          Partial memory accounting:
          | Residual value for overall tracked memory usage across tasks:     0.000000 MB (should be 0.000000 MB)
          | Peak values for overall tracked memory usage:
          |   Minimum:       17.267 MB (on task 44 after allocating wave)
          |   Maximum:       18.499 MB (on task 13 after allocating wave)
          |   Average:       17.904 MB
          | Largest tracked array allocation:
          |   Minimum:        1.909 MB (gradient_basis_wave on task 44)
          |   Maximum:        2.106 MB (gradient_basis_wave on task 10)
          |   Average:        2.012 MB
          Note:  These values currently only include a subset of arrays which are explicitly tracked.
          The "true" memory usage will be greater.

          Have a nice day.
------------------------------------------------------------
