------------------------------------------------------------
          Invoking FHI-aims ...

          When using FHI-aims, please cite the following reference:

            Volker Blum, Ralf Gehrke, Felix Hanke, Paula Havu,
            Ville Havu, Xinguo Ren, Karsten Reuter, and Matthias Scheffler,
            'Ab Initio Molecular Simulations with Numeric Atom-Centered Orbitals',
            Computer Physics Communications 180, 2175-2196 (2009)

          In addition, many other developments in FHI-aims are likely important for
          your particular application. If so, please cite them. A partial list of references
          is written at the end of this file. Thank you for giving credit to the authors
          of these developments.

          For general information about FHI-aims please find us at

            https://fhi-aims.org

          Online tutorials can be found at

            https://fhi-aims-club.gitlab.io/tutorials/tutorials-overview/

          For any questions about FHI-aims, please visit our slack channel at

            https://fhi-aims.slack.com

          and our main development and support site at

            https://aims-git.rz-berlin.mpg.de .

          The latter site, in particular, has a wiki to collect information, as well
          as an issue tracker to log discussions, suggest improvements, and report issues
          or bugs. https://aims-git.rz-berlin.mpg.de is also the main development site
          of the project and all new and updated code versions can be obtained there.
          Please send an email to aims-coordinators@fhi-berlin.mpg.de and we will add
          you to these sites. They are for you and everyone is welcome there.

------------------------------------------------------------



  Date     :  20251111, Time     :  213910.524
  Time zero on CPU 1             :   0.807215000000000E+00  s.
  Internal wall clock time zero  :           532129150.524  s.

  FHI-aims created a unique identifier for this run for later identification
  aims_uuid : 22BFFA5F-4F05-495A-A7AB-14B74F85CC9A

  Build configuration of the current instance of FHI-aims
  -------------------------------------------------------
  FHI-aims version      : 251023
  Commit number         : 8c0f38015
  CMake host system     : Linux-3.10.0-1160.80.1.el7.x86_64
  CMake version         : 3.24.2
  OS Distribution       : CentOS Linux 7 (Core)
  Built on              : AMD EPYC 7502 32-Core Processor
  Fortran compiler      : /apps/compilers/intel/2018.2/compilers_and_libraries_2018/linux/mpi/intel64/bin/mpif90 (Intel) version 18.0.2.20180210
  Fortran compiler flags: -O3 -ip -fp-model precise
  C compiler            : /apps/compilers/intel/2018.2/compilers_and_libraries_2018/linux/mpi/intel64/bin/mpiicc (Intel) version 18.0.2.20180210
  C compiler flags      : -O3 -ip -fp-model precise -std=gnu99
  C++ compiler          : /apps/compilers/intel/2018.2/compilers_and_libraries_2018/linux/mpi/intel64/bin/mpiicpc (Intel) version 18.0.2.20180210
  C++ compiler flags    : -O3 -ip -fp-model precise
  HIP compiler          :
  HIP compiler flags    :
  HIP GPU arch          :
  ELPA2 kernel          : AVX2
  Using MPI
  Using ScaLAPACK
  Using LibXC
  Using i-PI
  Using RLSY
  Linking against: /apps/compilers/intel/2020.1/compilers_and_libraries_2020/linux/mkl/lib/intel64/libmkl_intel_lp64.so
                   /apps/compilers/intel/2020.1/compilers_and_libraries_2020/linux/mkl/lib/intel64/libmkl_intel_thread.so
                   /apps/compilers/intel/2020.1/compilers_and_libraries_2020/linux/mkl/lib/intel64/libmkl_core.so
                   /apps/compilers/intel/2020.1/compilers_and_libraries_2020/linux/mkl/lib/intel64/libmkl_blacs_intelmpi_lp64.so
                   /apps/compilers/intel/2020.1/compilers_and_libraries_2020/linux/mkl/lib/intel64/libmkl_scalapack_lp64.so
                   /usr/lib64/libpthread.so

  Using       64 parallel tasks.
  Task        0 on host cca9067 reporting.
  Task        1 on host cca9067 reporting.
  Task        2 on host cca9067 reporting.
  Task        3 on host cca9067 reporting.
  Task        4 on host cca9067 reporting.
  Task        5 on host cca9067 reporting.
  Task        6 on host cca9067 reporting.
  Task        7 on host cca9067 reporting.
  Task        8 on host cca9067 reporting.
  Task        9 on host cca9067 reporting.
  Task       10 on host cca9067 reporting.
  Task       11 on host cca9067 reporting.
  Task       12 on host cca9067 reporting.
  Task       13 on host cca9067 reporting.
  Task       14 on host cca9067 reporting.
  Task       15 on host cca9067 reporting.
  Task       16 on host cca9067 reporting.
  Task       17 on host cca9067 reporting.
  Task       18 on host cca9067 reporting.
  Task       19 on host cca9067 reporting.
  Task       20 on host cca9067 reporting.
  Task       21 on host cca9067 reporting.
  Task       22 on host cca9067 reporting.
  Task       23 on host cca9067 reporting.
  Task       24 on host cca9067 reporting.
  Task       25 on host cca9067 reporting.
  Task       26 on host cca9067 reporting.
  Task       27 on host cca9067 reporting.
  Task       28 on host cca9067 reporting.
  Task       29 on host cca9067 reporting.
  Task       30 on host cca9067 reporting.
  Task       31 on host cca9067 reporting.
  Task       32 on host cca9067 reporting.
  Task       33 on host cca9067 reporting.
  Task       34 on host cca9067 reporting.
  Task       35 on host cca9067 reporting.
  Task       36 on host cca9067 reporting.
  Task       37 on host cca9067 reporting.
  Task       38 on host cca9067 reporting.
  Task       39 on host cca9067 reporting.
  Task       40 on host cca9067 reporting.
  Task       41 on host cca9067 reporting.
  Task       42 on host cca9067 reporting.
  Task       43 on host cca9067 reporting.
  Task       44 on host cca9067 reporting.
  Task       45 on host cca9067 reporting.
  Task       46 on host cca9067 reporting.
  Task       47 on host cca9067 reporting.
  Task       48 on host cca9067 reporting.
  Task       49 on host cca9067 reporting.
  Task       50 on host cca9067 reporting.
  Task       51 on host cca9067 reporting.
  Task       52 on host cca9067 reporting.
  Task       53 on host cca9067 reporting.
  Task       54 on host cca9067 reporting.
  Task       55 on host cca9067 reporting.
  Task       56 on host cca9067 reporting.
  Task       57 on host cca9067 reporting.
  Task       58 on host cca9067 reporting.
  Task       59 on host cca9067 reporting.
  Task       60 on host cca9067 reporting.
  Task       61 on host cca9067 reporting.
  Task       62 on host cca9067 reporting.
  Task       63 on host cca9067 reporting.

  Obtaining array dimensions for all initial allocations:
  
  -----------------------------------------------------------------------
  Parsing control.in (first pass over file, find array dimensions only).
  The contents of control.in will be repeated verbatim below
  unless switched off by setting 'verbatim_writeout .false.' .
  in the first line of control.in .
  -----------------------------------------------------------------------
  
  #===============================================================================
  # Created using the Atomic Simulation Environment (ASE)
  
  # Tue Nov 11 21:39:10 2025
  
  #===============================================================================
  xc                                 PBE0
  output_level                       full
  relativistic                       atomic_zora scalar
  occupation_type                    gaussian 0.01
  mixer                              pulay
  n_max_pulay                        10
  KS_method                          parallel
  RI_method                          LVL
  density_update_method              density_matrix
  atomic_solver_xc                   PBE
  basis_threshold                    1e-05
  override_illconditioning           .true.
  override_initial_charge_check      .true.
  use_2d_corr                        .true.
  charge                             -0.0
  #===============================================================================
  
  ################################################################################
  #
  #  FHI-aims code project
  #  Volker Blum, Fritz Haber Institute Berlin, 2009
  #
  #  Suggested "tight" defaults for C atom (to be pasted into control.in file)
  #
  ################################################################################
    species        C
  #     global species definitions
      nucleus             6
      mass                12.0107
  #
      l_hartree           6
  #
      cut_pot             4.0  2.0  1.0
      basis_dep_cutoff    1e-4
  #
      radial_base         34 7.0
      radial_multiplier   2
      angular_grids specified
        division   0.2187   50
        division   0.4416  110
        division   0.6335  194
        division   0.7727  302
        division   0.8772  434
  #      division   0.9334  590
  #      division   0.9924  770
  #      division   1.0230  974
  #      division   1.5020 1202
  #     outer_grid  974
        outer_grid  434
  ################################################################################
  #
  #  Definition of "minimal" basis
  #
  ################################################################################
  #     valence basis states
      valence      2  s   2.
      valence      2  p   2.
  #     ion occupancy
      ion_occ      2  s   1.
      ion_occ      2  p   1.
  ################################################################################
  #
  #  Suggested additional basis functions. For production calculations,
  #  uncomment them one after another (the most important basis functions are
  #  listed first).
  #
  #  Constructed for dimers: 1.0 A, 1.25 A, 1.5 A, 2.0 A, 3.0 A
  #
  ################################################################################
  #  "First tier" - improvements: -1214.57 meV to -155.61 meV
       hydro 2 p 1.7
       hydro 3 d 6
       hydro 2 s 4.9
  #  "Second tier" - improvements: -67.75 meV to -5.23 meV
       hydro 4 f 9.8
       hydro 3 p 5.2
       hydro 3 s 4.3
       hydro 5 g 14.4
       hydro 3 d 6.2
  #  "Third tier" - improvements: -2.43 meV to -0.60 meV
  #     hydro 2 p 5.6
  #     hydro 2 s 1.4
  #     hydro 3 d 4.9
  #     hydro 4 f 11.2
  #  "Fourth tier" - improvements: -0.39 meV to -0.18 meV
  #     hydro 2 p 2.1
  #     hydro 5 g 16.4
  #     hydro 4 d 13.2
  #     hydro 3 s 13.6
  #     hydro 4 f 17.6
  #  Further basis functions - improvements: -0.08 meV and below
  #     hydro 3 s 2
  #     hydro 3 p 6
  #     hydro 4 d 20
  ################################################################################
  #
  # For methods that use the localized form of the "resolution of identity" for
  # the two-electron Coulomb operator (RI_method LVL), particularly Hartree-Fock and
  # hybrid density functional calculations, the highest accuracy can be obtained by
  # uncommenting the line beginning with "for_aux"  below, thus adding an extra g radial
  # function to the construction of the product basis set for the expansion.
  # See Ref. New J. Phys. 17, 093020 (2015) for more information, particularly Figs. 1 and 6.
  #
  ################################################################################
  #
  # for_aux hydro 5 g 6.0
  ################################################################################
  #
  #  FHI-aims code project
  #  Volker Blum, Fritz Haber Institute Berlin, 2009
  #
  #  Suggested "tight" defaults for O atom (to be pasted into control.in file)
  #
  ################################################################################
    species        O
  #     global species definitions
      nucleus             8
      mass                15.9994
  #
      l_hartree           6
  #
      cut_pot             4.0  2.0  1.0
      basis_dep_cutoff    1e-4
  #
      radial_base         36 7.0
      radial_multiplier   2
       angular_grids specified
        division   0.1817   50
        division   0.3417  110
        division   0.4949  194
        division   0.6251  302
        division   0.8014  434
  #      division   0.8507  590
  #      division   0.8762  770
  #      division   0.9023  974
  #      division   1.2339 1202
  #      outer_grid 974
        outer_grid  434
  ################################################################################
  #
  #  Definition of "minimal" basis
  #
  ################################################################################
  #     valence basis states
      valence      2  s   2.
      valence      2  p   4.
  #     ion occupancy
      ion_occ      2  s   1.
      ion_occ      2  p   3.
  ################################################################################
  #
  #  Suggested additional basis functions. For production calculations,
  #  uncomment them one after another (the most important basis functions are
  #  listed first).
  #
  #  Constructed for dimers: 1.0 A, 1.208 A, 1.5 A, 2.0 A, 3.0 A
  #
  ################################################################################
  #  "First tier" - improvements: -699.05 meV to -159.38 meV
       hydro 2 p 1.8
       hydro 3 d 7.6
       hydro 3 s 6.4
  #  "Second tier" - improvements: -49.91 meV to -5.39 meV
       hydro 4 f 11.6
       hydro 3 p 6.2
       hydro 3 d 5.6
       hydro 5 g 17.6
       hydro 1 s 0.75
  #  "Third tier" - improvements: -2.83 meV to -0.50 meV
  #     ionic 2 p auto
  #     hydro 4 f 10.8
  #     hydro 4 d 4.7
  #     hydro 2 s 6.8
  #  "Fourth tier" - improvements: -0.40 meV to -0.12 meV
  #     hydro 3 p 5
  #     hydro 3 s 3.3
  #     hydro 5 g 15.6
  #     hydro 4 f 17.6
  #     hydro 4 d 14
  # Further basis functions - -0.08 meV and below
  #     hydro 3 s 2.1
  #     hydro 4 d 11.6
  #     hydro 3 p 16
  #     hydro 2 s 17.2
  ################################################################################
  #
  # For methods that use the localized form of the "resolution of identity" for
  # the two-electron Coulomb operator (RI_method LVL), particularly Hartree-Fock and
  # hybrid density functional calculations, the highest accuracy can be obtained by
  # uncommenting the line beginning with "for_aux"  below, thus adding an extra g radial
  # function to the construction of the product basis set for the expansion.
  # See Ref. New J. Phys. 17, 093020 (2015) for more information, particularly Figs. 1 and 6.
  #
  ################################################################################
  #
  # for_aux hydro 5 g 6.0
  ################################################################################
  #
  #  FHI-aims code project
  #  Volker Blum, Fritz Haber Institute Berlin, 2009
  #
  #  Suggested "tight" defaults for H atom (to be pasted into control.in file)
  #
  ################################################################################
    species        H
  #     global species definitions
      nucleus             1
      mass                1.00794
  #
      l_hartree           6
  #
      cut_pot             4.0  2.0  1.0
      basis_dep_cutoff    1e-4
  #
      radial_base         24 7.0
      radial_multiplier   2
      angular_grids       specified
        division   0.1930   50
        division   0.3175  110
        division   0.4293  194
        division   0.5066  302
        division   0.5626  434
  #      division   0.5922  590
  #      division   0.6227  974
  #      division   0.6868 1202
  #      outer_grid  770
        outer_grid  434
  ################################################################################
  #
  #  Definition of "minimal" basis
  #
  ################################################################################
  #     valence basis states
      valence      1  s   1.
  #     ion occupancy
      ion_occ      1  s   0.5
  ################################################################################
  #
  #  Suggested additional basis functions. For production calculations,
  #  uncomment them one after another (the most important basis functions are
  #  listed first).
  #
  #  Basis constructed for dimers: 0.5 A, 0.7 A, 1.0 A, 1.5 A, 2.5 A
  #
  ################################################################################
  #  "First tier" - improvements: -1014.90 meV to -62.69 meV
       hydro 2 s 2.1
       hydro 2 p 3.5
  #  "Second tier" - improvements: -12.89 meV to -1.83 meV
       hydro 1 s 0.85
       hydro 2 p 3.7
       hydro 2 s 1.2
       hydro 3 d 7
  #  "Third tier" - improvements: -0.25 meV to -0.12 meV
  #     hydro 4 f 11.2
  #     hydro 3 p 4.8
  #     hydro 4 d 9
  #     hydro 3 s 3.2
  ################################################################################
  #
  # For methods that use the localized form of the "resolution of identity" for
  # the two-electron Coulomb operator (RI_method LVL), particularly Hartree-Fock and
  # hybrid density functional calculations, the highest accuracy can be obtained by
  # uncommenting the line beginning with "for_aux"  below, thus adding an extra g radial
  # function to the construction of the product basis set for the expansion.
  # See Ref. New J. Phys. 17, 093020 (2015) for more information, particularly Figs. 1 and 6.
  #
  ################################################################################
  #
  # for_aux hydro 5 g 6.0
  
  -----------------------------------------------------------------------
  Completed first pass over input file control.in .
  -----------------------------------------------------------------------
  
  
  -----------------------------------------------------------------------
  Parsing geometry.in (first pass over file, find array dimensions only).
  The contents of geometry.in will be repeated verbatim below
  unless switched off by setting 'verbatim_writeout .false.' .
  in the first line of geometry.in .
  -----------------------------------------------------------------------
  
  #===============================================================================
  # Created using the Atomic Simulation Environment (ASE)
  
  # Tue Nov 11 21:39:10 2025
  
  #=======================================================
  atom -2.6344956300000000 1.0044033999999999 -1.4984848000000000 C
  atom -2.4904879499999999 -0.2028048600000000 -1.5049149200000000 O
  atom -1.6426462100000001 1.8612277200000000 -1.1002435500000001 O
  atom -0.8878055800000000 1.2887237499999999 -0.8474893900000000 H
  atom -3.8800762400000002 1.7522437600000000 -1.8933745900000001 C
  atom -4.5832091799999999 1.0635001600000000 -2.3696773800000002 H
  atom -4.3430032799999996 2.1833741400000002 -0.9944741300000000 H
  atom -3.6357337900000002 2.5834815899999999 -2.5665051200000000 H
  
  -----------------------------------------------------------------------
  Completed first pass over input file geometry.in .
  -----------------------------------------------------------------------
  

  Basic array size parameters:
  | Number of species                 :        3
  | Number of atoms                   :        8
  | Max. basis fn. angular momentum   :        4
  | Max. atomic/ionic basis occupied n:        2
  | Max. number of basis fn. types    :        2
  | Max. radial fns per species/type  :        8
  | Max. logarithmic grid size        :     1301
  | Max. radial integration grid size :       73
  | Max. angular integration grid size:      434
  | Max. angular grid division number :        8
  | Radial grid for Hartree potential :     1301
  | Number of spin channels           :        1

  Definition of standardized fundamental physical constants in this FHI-aims run:
  | Using the set of values used in FHI-aims up to 2024, which combines values from
  | different CODATA sets - see constants.f90.
  | Use the 'codata' keyword in control.in to change this selection.

  Memory overcommitment is allowed on your operating system.

------------------------------------------------------------
          Reading file control.in.
------------------------------------------------------------
  XC: Using hybrid-PBE0 functionals.
  Requested output level: full
  Scalar relativistic treatment of kinetic energy: on-site free-atom approximation to ZORA.
  Occupation type: Gaussian broadening, width =   0.100000E-01 eV.
  Using pulay charge density mixing.
  Pulay mixing - number of memorized iterations:   10
  Kohn-Sham electronic structure solved by the ELSI library.
  The 'LVL' version of RI (resolution of identity) technique is used.
  ** This is a localized expansion of all basis function products.
     Its intended use are Hartree-Fock and hybrid functionals.
     For RPA, MP2, GW, etc., LVL is not yet as accurate. In those cases, check carefully.
  Atomic Solver XC: Using user-defined functional for generating the minimal NAO basis functions.
  Note that only the following functionals are available: kli, pz-lda, pw-lda, vwn, vwn-gauss, pw91_gga, pbe, rpbe, revpbe, pbeint, pbesol, blyp.
  Threshold for basis singularities:  0.1000E-04
  override_illconditioning: Explicitly overriding any built-in checks for an ill-conditioned overlap matrix.
** WARNING:
  ***  If you use this flag, you should really know what you are doing.
** END OF WARNING
** WARNING:
  *** DO NOT keep this flag set by default in all your control.in files.
** END OF WARNING
  Efficient 2D distribution for correlation code.
  Charge =   0.000000E+00: Neutral system requested explicitly.
 
  Reading configuration options for species C                   .
  | Found nuclear charge :   6.0000
  | Found atomic mass :    12.0107000000000      amu
  | Found l_max for Hartree potential  :   6
  | Found cutoff potl. onset [A], width [A], scale factor :    4.00000    2.00000    1.00000
  | Threshold for basis-dependent cutoff potential is   0.100000E-03
  | Found data for basic radial integration grid :    34 points, outermost radius =    7.000 A
  | Found multiplier for basic radial grid :   2
  | Found angular grid specification: user-specified.
  | Specified grid contains     6 separate shells.
  | Check grid settings after all constraints further below.
  | Found free-atom valence shell :  2 s   2.000
  | Found free-atom valence shell :  2 p   2.000
  | No ionic wave fns used. Skipping ion_occ.
  | No ionic wave fns used. Skipping ion_occ.
  | Found hydrogenic basis function :  2 p   1.700
  | Found hydrogenic basis function :  3 d   6.000
  | Found hydrogenic basis function :  2 s   4.900
  | Found hydrogenic basis function :  4 f   9.800
  | Found hydrogenic basis function :  3 p   5.200
  | Found hydrogenic basis function :  3 s   4.300
  | Found hydrogenic basis function :  5 g  14.400
  | Found hydrogenic basis function :  3 d   6.200
 | Encountered keyword species, ending the description of species C                   .
  Species C                   : Missing cutoff potential type.
  Defaulting to exp(1/x)/(1-x)^2 type cutoff potential.
  Species C : No 'logarithmic' tag. Using default grid for free atom:
  | Default logarithmic grid data [bohr] : 0.1000E-03 0.1000E+03 0.1012E+01
  Species C : On-site basis accuracy parameter (for Gram-Schmidt orthonormalisation) not specified.
  Using default value basis_acc =  0.1000000E-03.
  Species C                   : Using default innermost maximum threshold i_radial=  2 for radial functions.
  Species C                   : Default cutoff onset for free atom density etc. : 0.40000000E+01 AA.
  Species C                   : Basic radial grid will be enhanced according to radial_multiplier =   2, to contain    69 grid points.
 
  Reading configuration options for species O                   .
  | Found nuclear charge :   8.0000
  | Found atomic mass :    15.9994000000000      amu
  | Found l_max for Hartree potential  :   6
  | Found cutoff potl. onset [A], width [A], scale factor :    4.00000    2.00000    1.00000
  | Threshold for basis-dependent cutoff potential is   0.100000E-03
  | Found data for basic radial integration grid :    36 points, outermost radius =    7.000 A
  | Found multiplier for basic radial grid :   2
  | Found angular grid specification: user-specified.
  | Specified grid contains     6 separate shells.
  | Check grid settings after all constraints further below.
  | Found free-atom valence shell :  2 s   2.000
  | Found free-atom valence shell :  2 p   4.000
  | No ionic wave fns used. Skipping ion_occ.
  | No ionic wave fns used. Skipping ion_occ.
  | Found hydrogenic basis function :  2 p   1.800
  | Found hydrogenic basis function :  3 d   7.600
  | Found hydrogenic basis function :  3 s   6.400
  | Found hydrogenic basis function :  4 f  11.600
  | Found hydrogenic basis function :  3 p   6.200
  | Found hydrogenic basis function :  3 d   5.600
  | Found hydrogenic basis function :  5 g  17.600
  | Found hydrogenic basis function :  1 s   0.750
 | Encountered keyword species, ending the description of species O                   .
  Species O                   : Missing cutoff potential type.
  Defaulting to exp(1/x)/(1-x)^2 type cutoff potential.
  Species O : No 'logarithmic' tag. Using default grid for free atom:
  | Default logarithmic grid data [bohr] : 0.1000E-03 0.1000E+03 0.1012E+01
  Species O : On-site basis accuracy parameter (for Gram-Schmidt orthonormalisation) not specified.
  Using default value basis_acc =  0.1000000E-03.
  Species O                   : Using default innermost maximum threshold i_radial=  2 for radial functions.
  Species O                   : Default cutoff onset for free atom density etc. : 0.40000000E+01 AA.
  Species O                   : Basic radial grid will be enhanced according to radial_multiplier =   2, to contain    73 grid points.
 
  Reading configuration options for species H                   .
  | Found nuclear charge :   1.0000
  | Found atomic mass :    1.00794000000000      amu
  | Found l_max for Hartree potential  :   6
  | Found cutoff potl. onset [A], width [A], scale factor :    4.00000    2.00000    1.00000
  | Threshold for basis-dependent cutoff potential is   0.100000E-03
  | Found data for basic radial integration grid :    24 points, outermost radius =    7.000 A
  | Found multiplier for basic radial grid :   2
  | Found angular grid specification: user-specified.
  | Specified grid contains     6 separate shells.
  | Check grid settings after all constraints further below.
  | Found free-atom valence shell :  1 s   1.000
  | No ionic wave fns used. Skipping ion_occ.
  | Found hydrogenic basis function :  2 s   2.100
  | Found hydrogenic basis function :  2 p   3.500
  | Found hydrogenic basis function :  1 s   0.850
  | Found hydrogenic basis function :  2 p   3.700
  | Found hydrogenic basis function :  2 s   1.200
  | Found hydrogenic basis function :  3 d   7.000
  Species H                   : Missing cutoff potential type.
  Defaulting to exp(1/x)/(1-x)^2 type cutoff potential.
  Species H : No 'logarithmic' tag. Using default grid for free atom:
  | Default logarithmic grid data [bohr] : 0.1000E-03 0.1000E+03 0.1012E+01
  Species H : On-site basis accuracy parameter (for Gram-Schmidt orthonormalisation) not specified.
  Using default value basis_acc =  0.1000000E-03.
  Species H                   : Using default innermost maximum threshold i_radial=  2 for radial functions.
  Species H                   : Default cutoff onset for free atom density etc. : 0.40000000E+01 AA.
  Species H                   : Basic radial grid will be enhanced according to radial_multiplier =   2, to contain    49 grid points.
 
  Finished reading input file 'control.in'.
 
------------------------------------------------------------


------------------------------------------------------------
          Reading geometry description geometry.in.
------------------------------------------------------------
  | The smallest distance between any two atoms is         0.98052529 AA.
  | The first atom of this pair is atom number                      3 .
  | The second atom of this pair is atom number                     4 .
  Input structure read successfully.
  The structure contains        8 atoms,  and a total of         32.000 electrons.

  Input geometry:
  | No unit cell requested.
  | Atomic structure:
  |       Atom                x [A]            y [A]            z [A]
  |    1: Species C            -2.63449563        1.00440340       -1.49848480
  |    2: Species O            -2.49048795       -0.20280486       -1.50491492
  |    3: Species O            -1.64264621        1.86122772       -1.10024355
  |    4: Species H            -0.88780558        1.28872375       -0.84748939
  |    5: Species C            -3.88007624        1.75224376       -1.89337459
  |    6: Species H            -4.58320918        1.06350016       -2.36967738
  |    7: Species H            -4.34300328        2.18337414       -0.99447413
  |    8: Species H            -3.63573379        2.58348159       -2.56650512

  Slab Identifier: This is not a periodic structure.
 
  Finished reading input file 'geometry.in'.
 

 
  Consistency checks for stacksize environment parameter are next.
 
  | Maximum stacksize for task 0: unlimited
  | Maximum stacksize for task 1: unlimited
  | Maximum stacksize for task 2: unlimited
  | Maximum stacksize for task 3: unlimited
  | Maximum stacksize for task 4: unlimited
  | Maximum stacksize for task 5: unlimited
  | Maximum stacksize for task 6: unlimited
  | Maximum stacksize for task 7: unlimited
  | Maximum stacksize for task 8: unlimited
  | Maximum stacksize for task 9: unlimited
  | Maximum stacksize for task 10: unlimited
  | Maximum stacksize for task 11: unlimited
  | Maximum stacksize for task 12: unlimited
  | Maximum stacksize for task 13: unlimited
  | Maximum stacksize for task 14: unlimited
  | Maximum stacksize for task 15: unlimited
  | Maximum stacksize for task 16: unlimited
  | Maximum stacksize for task 17: unlimited
  | Maximum stacksize for task 18: unlimited
  | Maximum stacksize for task 19: unlimited
  | Maximum stacksize for task 20: unlimited
  | Maximum stacksize for task 21: unlimited
  | Maximum stacksize for task 22: unlimited
  | Maximum stacksize for task 23: unlimited
  | Maximum stacksize for task 24: unlimited
  | Maximum stacksize for task 25: unlimited
  | Maximum stacksize for task 26: unlimited
  | Maximum stacksize for task 27: unlimited
  | Maximum stacksize for task 28: unlimited
  | Maximum stacksize for task 29: unlimited
  | Maximum stacksize for task 30: unlimited
  | Maximum stacksize for task 31: unlimited
  | Maximum stacksize for task 32: unlimited
  | Maximum stacksize for task 33: unlimited
  | Maximum stacksize for task 34: unlimited
  | Maximum stacksize for task 35: unlimited
  | Maximum stacksize for task 36: unlimited
  | Maximum stacksize for task 37: unlimited
  | Maximum stacksize for task 38: unlimited
  | Maximum stacksize for task 39: unlimited
  | Maximum stacksize for task 40: unlimited
  | Maximum stacksize for task 41: unlimited
  | Maximum stacksize for task 42: unlimited
  | Maximum stacksize for task 43: unlimited
  | Maximum stacksize for task 44: unlimited
  | Maximum stacksize for task 45: unlimited
  | Maximum stacksize for task 46: unlimited
  | Maximum stacksize for task 47: unlimited
  | Maximum stacksize for task 48: unlimited
  | Maximum stacksize for task 49: unlimited
  | Maximum stacksize for task 50: unlimited
  | Maximum stacksize for task 51: unlimited
  | Maximum stacksize for task 52: unlimited
  | Maximum stacksize for task 53: unlimited
  | Maximum stacksize for task 54: unlimited
  | Maximum stacksize for task 55: unlimited
  | Maximum stacksize for task 56: unlimited
  | Maximum stacksize for task 57: unlimited
  | Maximum stacksize for task 58: unlimited
  | Maximum stacksize for task 59: unlimited
  | Maximum stacksize for task 60: unlimited
  | Maximum stacksize for task 61: unlimited
  | Maximum stacksize for task 62: unlimited
  | Maximum stacksize for task 63: unlimited
  | Current stacksize for task 0: unlimited
  | Current stacksize for task 1: unlimited
  | Current stacksize for task 2: unlimited
  | Current stacksize for task 3: unlimited
  | Current stacksize for task 4: unlimited
  | Current stacksize for task 5: unlimited
  | Current stacksize for task 6: unlimited
  | Current stacksize for task 7: unlimited
  | Current stacksize for task 8: unlimited
  | Current stacksize for task 9: unlimited
  | Current stacksize for task 10: unlimited
  | Current stacksize for task 11: unlimited
  | Current stacksize for task 12: unlimited
  | Current stacksize for task 13: unlimited
  | Current stacksize for task 14: unlimited
  | Current stacksize for task 15: unlimited
  | Current stacksize for task 16: unlimited
  | Current stacksize for task 17: unlimited
  | Current stacksize for task 18: unlimited
  | Current stacksize for task 19: unlimited
  | Current stacksize for task 20: unlimited
  | Current stacksize for task 21: unlimited
  | Current stacksize for task 22: unlimited
  | Current stacksize for task 23: unlimited
  | Current stacksize for task 24: unlimited
  | Current stacksize for task 25: unlimited
  | Current stacksize for task 26: unlimited
  | Current stacksize for task 27: unlimited
  | Current stacksize for task 28: unlimited
  | Current stacksize for task 29: unlimited
  | Current stacksize for task 30: unlimited
  | Current stacksize for task 31: unlimited
  | Current stacksize for task 32: unlimited
  | Current stacksize for task 33: unlimited
  | Current stacksize for task 34: unlimited
  | Current stacksize for task 35: unlimited
  | Current stacksize for task 36: unlimited
  | Current stacksize for task 37: unlimited
  | Current stacksize for task 38: unlimited
  | Current stacksize for task 39: unlimited
  | Current stacksize for task 40: unlimited
  | Current stacksize for task 41: unlimited
  | Current stacksize for task 42: unlimited
  | Current stacksize for task 43: unlimited
  | Current stacksize for task 44: unlimited
  | Current stacksize for task 45: unlimited
  | Current stacksize for task 46: unlimited
  | Current stacksize for task 47: unlimited
  | Current stacksize for task 48: unlimited
  | Current stacksize for task 49: unlimited
  | Current stacksize for task 50: unlimited
  | Current stacksize for task 51: unlimited
  | Current stacksize for task 52: unlimited
  | Current stacksize for task 53: unlimited
  | Current stacksize for task 54: unlimited
  | Current stacksize for task 55: unlimited
  | Current stacksize for task 56: unlimited
  | Current stacksize for task 57: unlimited
  | Current stacksize for task 58: unlimited
  | Current stacksize for task 59: unlimited
  | Current stacksize for task 60: unlimited
  | Current stacksize for task 61: unlimited
  | Current stacksize for task 62: unlimited
  | Current stacksize for task 63: unlimited
 
  Consistency checks for the contents of control.in are next.
 
  MPI_IN_PLACE appears to work with this MPI implementation.
  | Keeping use_mpi_in_place .true. (see manual).
  Species C: Using default value for prodbas_acc =   1.000000E-04.
  Species C: Using default value max_l_prodbas =    20.
  Species O: Using default value for prodbas_acc =   1.000000E-04.
  Species O: Using default value max_l_prodbas =    20.
  Species H: Using default value for prodbas_acc =   1.000000E-04.
  Species H: Using default value max_l_prodbas =    20.
  Target number of points in a grid batch is not set. Defaulting to  100
  Method for grid partitioning is not set. Defaulting to parallel hash+maxmin partitioning.
  Batch size limit is not set. Defaulting to    200
  By default, will store active basis functions for each batch.
  If in need of memory, prune_basis_once .false. can be used to disable this option.
  communication_type for Hartree potential was not specified.
  Defaulting to calc_hartree .
  Pulay mixer: Number of initial linear mixing iterations not set.
  Defaulting to    0 iterations.
  Work space size for distributed Hartree potential not set.
  Defaulting to   0.200000E+03 MB.
  Mixing parameter for charge density mixing has not been set.
  Using default: charge_mix_param =     0.0500.
  The mixing parameter will be adjusted in iteration number     2 of each s.c.f. cycle (i.e., each geometry step).
  Algorithm-dependent basis array size parameters:
  | n_max_pulay                         :       10
  Maximum number of self-consistency iterations not provided.
  Presetting  1000 iterations.
  Presetting      1001 iterations before the initial mixing cycle
  is restarted anyway using the sc_init_iter criterion / keyword.
  Presetting a factor      1.000 between actual scf density residual
  and density convergence criterion sc_accuracy_rho below which sc_init_iter
  takes no effect.
 * No s.c.f. convergence criteria (sc_accuracy_*) were provided in control.in.
 * The run will proceed with a reasonable default guess, but please check whether.
 * the s.c.f. cycles seem to take too much or too little time.
  Calculation of forces was not defined in control.in. No forces will be calculated.
  Geometry relaxation not requested: no relaxation will be performed.
 * Notice: The s.c.f. convergence criterion sc_accuracy_rho was not provided.
 * We used to stop in this case, and ask the user to provide reasonable
 * scf convergence criteria. However, this led some users to employ criteria
 * that led to extremely long run times, e.g., for simple relaxation.
 * We now preset a default value for sc_accuracy_rho if it is not set.
 * You may still wish to check if this setting is too tight or too loose for your needs.
 * Based on n_atoms and forces and force-correction status, FHI-aims chose sc_accuracy_rho =  0.923760E-05 .
  No accuracy limit for integral partition fn. given. Defaulting to  0.1000E-14.
  No threshold value for u(r) in integrations given. Defaulting to  0.1000E-05.
  No accuracy for occupation numbers given. Defaulting to  0.1000E-12.
  No threshold value for occupation numbers given. Defaulting to  0.0000E+00.
  No accuracy for fermi level given. Defaulting to  0.1000E-19.
  Maximum # of iterations to find E_F not set. Defaulting to  200.
  Will not use alltoall communication since running on < 1024 CPUs.
  partition_type (choice of integration weights) for integrals was not specified.
  | Using a version of the partition function of Stratmann and coworkers ('stratmann_sparse').
  | At each grid point, the set of atoms used to build the partition table is smoothly restricted to
  | only those atoms whose free-atom density would be non-zero at that grid point.
  Partitioning for Hartree potential was not defined. Using partition_type for integrals.
  | Adjusted default value of keyword multip_moments_threshold to:       0.10000000E-11
  | This value may affect high angular momentum components of the Hartree potential in periodic systems.
  Spin handling was not defined in control.in. Defaulting to unpolarized case.
  Threshold for auxiliary basis singularities not set.
  Default threshold for auxiliary basis singularities:  0.1000E-04
  Use default threshold for vanishing multipole moments of auxiliary basis:  0.1000E-07
  No q(lm)/r^(l+1) cutoff set for long-range Hartree potential.
  | Using default value of  0.100000E-09 .
  | Verify using the multipole_threshold keyword.
  Defaulting to new monopole extrapolation.
  Density update method: density matrix based density update selected.
  Scalapack and density-matrix based density update required:
  Switching to packed matrix format "index" by default.
  Coulomb operator: Defaulting to screening threshold for four-center integrals:   0.100000E-06
  Coulomb operator: Defaulting to screening threshold for Coulomb matrix:   0.100000E-09
  Fock matrix calculation: Setting the screening threshold for overlap matrix to coul_mat_threshold:   0.100000E-09
  Coulomb operator: Defaulting to logarithmic spherical Bessel transform integrals (use_logsbt .true.).
  Charge integration errors on the 3D integration grid will be compensated
  by explicit normalization and distribution of residual charges.
  Use the "compensate_multipole_errors" flag to change this behaviour.
  LVL not implemented with density matrix yet
  -> switching to transformed overlap
  LVL probably works better with logsbt
  Default to 1D ("use_logsbt") integrations for auxiliary 2-center integrals.
  Default onset of logarithmic r-grid for SBT is -38.000000000000
  Default onset of logarithmic k-grid for SBT is -25.000000000000
  Default range of logarithmic r- and k-grid for SBT is  45.000000000000
  Default number of logarithmic r- and k-grid for SBT is   4096
  Found no potential conflicts with setting 'use_local_index' for this calculation.
  Flag 'use_local_index' has not been set.
  Testing whether we classify this calculation as large-scale ...
  The calculation contains less than 100 atoms. This is most likely not a large-scale calculation.
  Not setting 'use_local_index'.
 
  Consistency checks for the contents of geometry.in are next.
 
  Number of empty states per atom not set in control.in - providing a guess from actual geometry.
  | Total number of empty states used during s.c.f. cycle:       18
  If you use a very high smearing, use empty_states (per atom!) in control.in to increase this value.

  Structure-dependent array size parameters: 
  | Maximum number of distinct radial functions  :       29
  | Maximum number of basis functions            :      216
  | Number of Kohn-Sham states (occupied + empty):       34
------------------------------------------------------------
  After read_input_data [GB]:    228.92

  Performing system and environment tests:
  | Environment variable OMP_NUM_THREADS correctly set to 1.
  | Checking for ScaLAPACK...
  | Testing pdtran()...
  | All pdtran() tests passed.
  | Testing CPU compatibility for run-time vs. build-time.
  | Reading /proc/cpuinfo for CPU information ...
  | Built for  : AMD EPYC 7502 32-Core Processor
  | Running on : AMD EPYC 7502 32-Core Processor
  | Runtime CPU compatibility verified.
  
  After prepare_system [GB]:    228.84

------------------------------------------------------------
          Preparing all fixed parts of the calculation.
------------------------------------------------------------
  Determining machine precision:
    2.225073858507201E-308
  Setting up grids for atomic and cluster calculations.

  Creating wave function, potential, and density for free atoms.
  Runtime choices for atomic solver:
  | atomic solver xc        : PBE
  | compute density gradient: 1
  | compute kinetic density : F

  Species: C

  List of occupied orbitals and eigenvalues:
    n    l              occ      energy [Ha]    energy [eV]
    1    0           2.0000       -10.049212      -273.4530
    2    0           2.0000        -0.504761       -13.7352
    2    1           2.0000        -0.193631        -5.2690


  Species: O

  List of occupied orbitals and eigenvalues:
    n    l              occ      energy [Ha]    energy [eV]
    1    0           2.0000       -18.927378      -515.0401
    2    0           2.0000        -0.880539       -23.9607
    2    1           4.0000        -0.331811        -9.0290


  Species: H

  List of occupied orbitals and eigenvalues:
    n    l              occ      energy [Ha]    energy [eV]
    1    0           1.0000        -0.238386        -6.4868


  Adding cutoff potential to free-atom effective potential.
  Creating fixed part of basis set: Ionic, confined, hydrogenic.
 
  C                    hydrogenic:
 
  List of hydrogenic basis orbitals: 
    n    l      effective z      eigenvalue [eV]  inner max. [A]     outer max. [A]     outer radius [A]   
    2    1         1.700000        -9.8152           1.245706           1.245706           5.401630
    3    2         6.000000       -54.4226           0.792453           0.792453           4.178599
    2    0         4.900000       -81.6681           0.082559           0.562749           3.353238
    4    3         9.800000       -81.6681           0.863254           0.863254           4.028125
    3    1         5.200000       -40.8774           0.305389           1.215618           4.898362
    3    0         4.300000       -27.9508           0.091041           1.610311           5.401630
    5    4        14.400000      -112.8510           0.917666           0.917666           3.883070
    3    2         6.200000       -58.1113           0.763917           0.763917           4.077671
 
 
  O                    hydrogenic:
 
  List of hydrogenic basis orbitals: 
    n    l      effective z      eigenvalue [eV]  inner max. [A]     outer max. [A]     outer radius [A]   
    2    1         1.800000       -11.0118           1.178562           1.178562           5.432602
    3    2         7.600000       -87.3182           0.624125           0.624125           3.541477
    3    0         6.400000       -61.9209           0.061167           1.081902           4.306578
    4    3        11.600000      -114.4238           0.731631           0.731631           3.585037
    3    1         6.200000       -58.1113           0.255680           1.030270           4.306578
    3    2         5.600000       -47.4081           0.847233           0.847233           4.413171
    5    4        17.600000      -168.5799           0.749740           0.749740           3.372465
    1    0         0.750000        -7.6499           0.705284           0.705284           5.366593
 
 
  H                    hydrogenic:
 
  List of hydrogenic basis orbitals: 
    n    l      effective z      eigenvalue [eV]  inner max. [A]     outer max. [A]     outer radius [A]   
    2    0         2.100000       -14.9965           0.193243           1.317208           5.373006
    2    1         3.500000       -41.6672           0.602369           0.602369           4.056063
    1    0         0.850000        -9.8292           0.624871           0.624871           5.373006
    2    1         3.700000       -46.5653           0.573622           0.573622           3.910002
    2    0         1.200000        -4.5995           0.334980           2.228188           5.505995
    3    2         7.000000       -74.0753           0.680699           0.680699           3.769201
 
  Creating atomic-like basis functions for current effective potential.

  Species C                   :

  List of atomic basis orbitals and eigenvalues:
    n    l      energy [Ha]    energy [eV]    outer radius [A]
    1    0       -10.049212      -273.4530       1.934409
    2    0        -0.504761       -13.7352       5.271162
    2    1        -0.193631        -5.2690       5.401630


  Species O                   :

  List of atomic basis orbitals and eigenvalues:
    n    l      energy [Ha]    energy [eV]    outer radius [A]
    1    0       -18.927378      -515.0401       1.415765
    2    0        -0.880539       -23.9607       5.048385
    2    1        -0.331811        -9.0290       5.301386


  Species H                   :

  List of atomic basis orbitals and eigenvalues:
    n    l      energy [Ha]    energy [eV]    outer radius [A]
    1    0        -0.238386        -6.4868       5.373006

  Assembling full basis from fixed parts.
  | Species C :   atomic orbital   1 s accepted.
  | Species C :    hydro orbital   2 s accepted.
  | Species C :   atomic orbital   2 s accepted.
  | Species C :    hydro orbital   3 s accepted.
  | Species C :    hydro orbital   3 p accepted.
  | Species C :   atomic orbital   2 p accepted.
  | Species C :    hydro orbital   2 p accepted.
  | Species C :    hydro orbital   3 d accepted.
  | Species C :    hydro orbital   3 d accepted.
  | Species C :    hydro orbital   4 f accepted.
  | Species C :    hydro orbital   5 g accepted.
  | Species O :   atomic orbital   1 s accepted.
  | Species O :    hydro orbital   3 s accepted.
  | Species O :   atomic orbital   2 s accepted.
  | Species O :    hydro orbital   1 s accepted.
  | Species O :    hydro orbital   3 p accepted.
  | Species O :   atomic orbital   2 p accepted.
  | Species O :    hydro orbital   2 p accepted.
  | Species O :    hydro orbital   3 d accepted.
  | Species O :    hydro orbital   3 d accepted.
  | Species O :    hydro orbital   4 f accepted.
  | Species O :    hydro orbital   5 g accepted.
  | Species H :   atomic orbital   1 s accepted.
  | Species H :    hydro orbital   2 s accepted.
  | Species H :    hydro orbital   1 s accepted.
  | Species H :    hydro orbital   2 s accepted.
  | Species H :    hydro orbital   2 p accepted.
  | Species H :    hydro orbital   2 p accepted.
  | Species H :    hydro orbital   3 d accepted.
 
  Basis size parameters after reduction:
  | Total number of radial functions:       29
  | Total number of basis functions :      216
 
  Per-task memory consumption for arrays in subroutine allocate_ext:
  |           9.665732MB.
  Testing on-site integration grid accuracy.
  |  Species  Function  <phi|h_atom|phi> (log., in eV)  <phi|h_atom|phi> (rad., in eV)
           1        1               -273.4529725981               -273.4529710451
           1        2                -10.7721037329                -10.7721022102
           1        3                 17.6044132585                 17.6044162052
           1        4                 53.7706460564                 53.7706913681
           1        5                 15.0973290351                 15.0973256011
           1        6                  3.8545134677                  3.8545724657
           1        7                 12.1156992586                 12.1182024423
           1        8                 29.4352039288                 29.4352041805
           1        9                 54.8741144697                 54.8740268719
           1       10                 59.3556032036                 59.3556031370
           1       11                 93.4551837140                 93.4551837996
           2       12               -515.0401491148               -515.0401445497
           2       13                 15.1629302771                 15.1629233102
           2       14                -21.6127103295                -21.6127145449
           2       15                 14.4001435709                 14.4001765990
           2       16                 20.8862585187                 20.8862589491
           2       17                 -2.4803658578                 -2.4803665016
           2       18                 13.8586387760                 13.8586021622
           2       19                 45.8331828879                 45.8331828941
           2       20                 52.1851961049                 52.1851977023
           2       21                 85.4133898762                 85.4133899074
           2       22                142.1023296234                142.1023296272
           3       23                 -6.4870767962                 -6.4871688290
           3       24                 13.5032046589                 13.5028982997
           3       25                 32.8195184817                 32.8119941656
           3       26                 33.8513856511                 33.7670005767 ***
           3       27                 28.8544614965                 28.8544615203
           3       28                 59.6326952547                 59.6327656460
           3       29                 60.2719308513                 60.2719305949
 * Note: Onsite integrals marked "***" above are less accurate than
 * onsite_accuracy_threshold =    0.03000 eV. Usually, this is harmless.
 * When in doubt, tighten the "radial" and/or "radial_multiplier" flags to check.

  Task       0:*** pseudo_inverse, for evaluate_coeff_d: error of  6.04E-14; eps:  1.00E-15
  Preparing densities etc. for the partition functions (integrals / Hartree potential).

  Preparations completed.
  max(cpu_time)          :      0.162 s.
  Wall clock time (cpu1) :      0.165 s.
------------------------------------------------------------
  After prepare_scf [GB]:    227.04

  Initializing index lists of integration centers etc. from given atomic structure:
  | Consuming          0 KiB for k_phase_exx.
  | Number of centers in hartree potential                       :         8
  | Number of centers in hartree multipole                       :         8
  | Number of centers in electron density summation              :         8
  | Number of centers in basis integrals                         :         8
  | Number of centers in integrals                               :         8
  | Number of centers in hamiltonian                             :         8
  | Number of centers in partition table from touching 0-cell    :         8
  | Number of centers in partition table total                   :         8
  After initialize_bc_dependent_lists [GB]:    227.04

  Initializing index lists of integration centers etc. from given atomic structure:
  | Consuming          0 KiB for k_phase_exx.
  | Number of centers in hartree potential                       :         8
  | Number of centers in hartree multipole                       :         8
  | Number of centers in electron density summation              :         8
  | Number of centers in basis integrals                         :         8
  | Number of centers in integrals                               :         8
  | Number of centers in hamiltonian                             :         8
  | Number of centers in partition table from touching 0-cell    :         8
  | Number of centers in partition table total                   :         8

------------------------------------------------------------
          Begin self-consistency loop: Initialization.

          Date     :  20251111, Time     :  213910.770
------------------------------------------------------------
  Available memory per node after initialize_hartree_non_periodic_ewald [GB]:    227.04
  Available memory per node after initialize_recip_hartree_potential [GB]:    227.04
  * Using 64 tasks for Scalapack Eigenvalue solver.
  Detailed listing of tasks and assigned k-points:
  (for non-periodic systems, the "k-point" denotes an internal label only)
   Task     0 k-point     1 on cca9067
   Task     1 k-point     1 on cca9067
   Task     2 k-point     1 on cca9067
   Task     3 k-point     1 on cca9067
   Task     4 k-point     1 on cca9067
   Task     5 k-point     1 on cca9067
   Task     6 k-point     1 on cca9067
   Task     7 k-point     1 on cca9067
   Task     8 k-point     1 on cca9067
   Task     9 k-point     1 on cca9067
   Task    10 k-point     1 on cca9067
   Task    11 k-point     1 on cca9067
   Task    12 k-point     1 on cca9067
   Task    13 k-point     1 on cca9067
   Task    14 k-point     1 on cca9067
   Task    15 k-point     1 on cca9067
   Task    16 k-point     1 on cca9067
   Task    17 k-point     1 on cca9067
   Task    18 k-point     1 on cca9067
   Task    19 k-point     1 on cca9067
   Task    20 k-point     1 on cca9067
   Task    21 k-point     1 on cca9067
   Task    22 k-point     1 on cca9067
   Task    23 k-point     1 on cca9067
   Task    24 k-point     1 on cca9067
   Task    25 k-point     1 on cca9067
   Task    26 k-point     1 on cca9067
   Task    27 k-point     1 on cca9067
   Task    28 k-point     1 on cca9067
   Task    29 k-point     1 on cca9067
   Task    30 k-point     1 on cca9067
   Task    31 k-point     1 on cca9067
   Task    32 k-point     1 on cca9067
   Task    33 k-point     1 on cca9067
   Task    34 k-point     1 on cca9067
   Task    35 k-point     1 on cca9067
   Task    36 k-point     1 on cca9067
   Task    37 k-point     1 on cca9067
   Task    38 k-point     1 on cca9067
   Task    39 k-point     1 on cca9067
   Task    40 k-point     1 on cca9067
   Task    41 k-point     1 on cca9067
   Task    42 k-point     1 on cca9067
   Task    43 k-point     1 on cca9067
   Task    44 k-point     1 on cca9067
   Task    45 k-point     1 on cca9067
   Task    46 k-point     1 on cca9067
   Task    47 k-point     1 on cca9067
   Task    48 k-point     1 on cca9067
   Task    49 k-point     1 on cca9067
   Task    50 k-point     1 on cca9067
   Task    51 k-point     1 on cca9067
   Task    52 k-point     1 on cca9067
   Task    53 k-point     1 on cca9067
   Task    54 k-point     1 on cca9067
   Task    55 k-point     1 on cca9067
   Task    56 k-point     1 on cca9067
   Task    57 k-point     1 on cca9067
   Task    58 k-point     1 on cca9067
   Task    59 k-point     1 on cca9067
   Task    60 k-point     1 on cca9067
   Task    61 k-point     1 on cca9067
   Task    62 k-point     1 on cca9067
   Task    63 k-point     1 on cca9067
  Tasks:    64 split into      8 X      8 BLACS grid
  Calculating block size based on n_basis =          216  max_nprow =            8  max_npcol =            8
  ScaLAPACK block size set to:           16
  Allocating        0.008 MB for ovlp
  Allocating        0.008 MB for ham
  Allocating        0.008 MB for eigenvec
  Required Scalapack workspace - INTEGER:            1  REAL:             1
  Available memory per node after initialize_scalapack [GB]:    227.04
  Available memory per node after aims_elsi_init_scf [GB]:    227.04
  Available memory per node after initialize_fixed_grids [GB]:    227.04
  Partitioning the integration grid into batches with parallel hashing+maxmin method.
  | Number of batches:     1677
  | Maximal batch size:     199
  | Minimal batch size:       1
  | Average batch size:      80.043
  | Standard deviation of batch sizes:      22.209

  Integration load balanced across    64 MPI tasks.
  Work distribution over tasks is as follows:
  Task     0 has       2106 integration points.
  Task     1 has       2040 integration points.
  Task     2 has       2133 integration points.
  Task     3 has       2069 integration points.
  Task     4 has       2076 integration points.
  Task     5 has       2053 integration points.
  Task     6 has       2135 integration points.
  Task     7 has       2075 integration points.
  Task     8 has       2108 integration points.
  Task     9 has       2042 integration points.
  Task    10 has       2056 integration points.
  Task    11 has       2086 integration points.
  Task    12 has       2083 integration points.
  Task    13 has       2140 integration points.
  Task    14 has       2042 integration points.
  Task    15 has       2074 integration points.
  Task    16 has       2171 integration points.
  Task    17 has       2132 integration points.
  Task    18 has       2138 integration points.
  Task    19 has       2066 integration points.
  Task    20 has       2068 integration points.
  Task    21 has       2086 integration points.
  Task    22 has       2069 integration points.
  Task    23 has       2113 integration points.
  Task    24 has       2065 integration points.
  Task    25 has       2071 integration points.
  Task    26 has       2080 integration points.
  Task    27 has       2138 integration points.
  Task    28 has       2079 integration points.
  Task    29 has       2092 integration points.
  Task    30 has       2112 integration points.
  Task    31 has       2134 integration points.
  Task    32 has       2135 integration points.
  Task    33 has       2101 integration points.
  Task    34 has       2062 integration points.
  Task    35 has       2065 integration points.
  Task    36 has       2061 integration points.
  Task    37 has       2115 integration points.
  Task    38 has       2074 integration points.
  Task    39 has       2068 integration points.
  Task    40 has       2076 integration points.
  Task    41 has       2072 integration points.
  Task    42 has       2070 integration points.
  Task    43 has       2192 integration points.
  Task    44 has       2134 integration points.
  Task    45 has       2109 integration points.
  Task    46 has       2073 integration points.
  Task    47 has       2058 integration points.
  Task    48 has       2053 integration points.
  Task    49 has       2071 integration points.
  Task    50 has       2073 integration points.
  Task    51 has       2069 integration points.
  Task    52 has       2216 integration points.
  Task    53 has       2130 integration points.
  Task    54 has       2069 integration points.
  Task    55 has       2043 integration points.
  Task    56 has       2175 integration points.
  Task    57 has       2219 integration points.
  Task    58 has       2075 integration points.
  Task    59 has       2137 integration points.
  Task    60 has       2078 integration points.
  Task    61 has       2105 integration points.
  Task    62 has       2195 integration points.
  Task    63 has       2127 integration points.
  Available memory per node after partition_grid [GB]:    227.00
  Initializing partition tables, free-atom densities, potentials, etc. across the integration grid (initialize_grid_storage).
  | initialize_grid_storage: Actual outermost partition radius vs. multipole_radius_free
  | (-- VB: in principle, multipole_radius_free should be larger, hence this output)
  | Species        1: Confinement radius =              6.000000000000000 AA, multipole_radius_free =              6.029870734432609 AA.
  | Species        1: outer_partition_radius set to              6.029870734432609 AA .
  | Species        2: Confinement radius =              6.000000000000000 AA, multipole_radius_free =              6.064445521808699 AA.
  | Species        2: outer_partition_radius set to              6.064445521808699 AA .
  | Species        3: Confinement radius =              6.000000000000000 AA, multipole_radius_free =              6.071692442739658 AA.
  | Species        3: outer_partition_radius set to              6.071692442739658 AA .
  | The sparse table of interatomic distances needs          0.71 kbyte instead of         0.51 kbyte of memory.
  | Using the partition_type stratmann_smoother will reduce your memory usage.
  | Net number of integration points:   134232
  | of which are non-zero points    :   114051
  Available memory per node after initialize_grid_storage_p1 [GB]:    226.98
  Renormalizing the initial density to the exact electron count on the 3D integration grid.
  | Initial density: Formal number of electrons (from input files) :      32.0000000000
  | Integrated number of electrons on 3D grid     :      31.9999985332
  | Charge integration error                      :      -0.0000014668
  | Normalization factor for density and gradient :       1.0000000458
  Renormalizing the free-atom superposition density to the exact electron count on the 3D integration grid.
  | Formal number of electrons (from input files) :      32.0000000000
  | Integrated number of electrons on 3D grid     :      31.9999985332
  | Charge integration error                      :      -0.0000014668
  | Normalization factor for density and gradient :       1.0000000458
  Obtaining max. number of non-zero basis functions in each batch (get_n_compute_maxes).
  | Maximal number of non-zero basis functions:      216 in task     0
  | Maximal number of non-zero basis functions:      216 in task     1
  | Maximal number of non-zero basis functions:      216 in task     2
  | Maximal number of non-zero basis functions:      216 in task     3
  | Maximal number of non-zero basis functions:      216 in task     4
  | Maximal number of non-zero basis functions:      216 in task     5
  | Maximal number of non-zero basis functions:      215 in task     6
  | Maximal number of non-zero basis functions:      216 in task     7
  | Maximal number of non-zero basis functions:      216 in task     8
  | Maximal number of non-zero basis functions:      216 in task     9
  | Maximal number of non-zero basis functions:      216 in task    10
  | Maximal number of non-zero basis functions:      216 in task    11
  | Maximal number of non-zero basis functions:      216 in task    12
  | Maximal number of non-zero basis functions:      216 in task    13
  | Maximal number of non-zero basis functions:      216 in task    14
  | Maximal number of non-zero basis functions:      216 in task    15
  | Maximal number of non-zero basis functions:      216 in task    16
  | Maximal number of non-zero basis functions:      215 in task    17
  | Maximal number of non-zero basis functions:      215 in task    18
  | Maximal number of non-zero basis functions:      216 in task    19
  | Maximal number of non-zero basis functions:      216 in task    20
  | Maximal number of non-zero basis functions:      216 in task    21
  | Maximal number of non-zero basis functions:      216 in task    22
  | Maximal number of non-zero basis functions:      216 in task    23
  | Maximal number of non-zero basis functions:      216 in task    24
  | Maximal number of non-zero basis functions:      216 in task    25
  | Maximal number of non-zero basis functions:      216 in task    26
  | Maximal number of non-zero basis functions:      216 in task    27
  | Maximal number of non-zero basis functions:      216 in task    28
  | Maximal number of non-zero basis functions:      216 in task    29
  | Maximal number of non-zero basis functions:      216 in task    30
  | Maximal number of non-zero basis functions:      216 in task    31
  | Maximal number of non-zero basis functions:      216 in task    32
  | Maximal number of non-zero basis functions:      216 in task    33
  | Maximal number of non-zero basis functions:      216 in task    34
  | Maximal number of non-zero basis functions:      216 in task    35
  | Maximal number of non-zero basis functions:      215 in task    36
  | Maximal number of non-zero basis functions:      216 in task    37
  | Maximal number of non-zero basis functions:      216 in task    38
  | Maximal number of non-zero basis functions:      216 in task    39
  | Maximal number of non-zero basis functions:      216 in task    40
  | Maximal number of non-zero basis functions:      216 in task    41
  | Maximal number of non-zero basis functions:      216 in task    42
  | Maximal number of non-zero basis functions:      216 in task    43
  | Maximal number of non-zero basis functions:      216 in task    44
  | Maximal number of non-zero basis functions:      216 in task    45
  | Maximal number of non-zero basis functions:      216 in task    46
  | Maximal number of non-zero basis functions:      216 in task    47
  | Maximal number of non-zero basis functions:      216 in task    48
  | Maximal number of non-zero basis functions:      216 in task    49
  | Maximal number of non-zero basis functions:      216 in task    50
  | Maximal number of non-zero basis functions:      216 in task    51
  | Maximal number of non-zero basis functions:      216 in task    52
  | Maximal number of non-zero basis functions:      216 in task    53
  | Maximal number of non-zero basis functions:      216 in task    54
  | Maximal number of non-zero basis functions:      216 in task    55
  | Maximal number of non-zero basis functions:      216 in task    56
  | Maximal number of non-zero basis functions:      216 in task    57
  | Maximal number of non-zero basis functions:      216 in task    58
  | Maximal number of non-zero basis functions:      216 in task    59
  | Maximal number of non-zero basis functions:      216 in task    60
  | Maximal number of non-zero basis functions:      216 in task    61
  | Maximal number of non-zero basis functions:      216 in task    62
  | Maximal number of non-zero basis functions:      216 in task    63
  Available memory per node after get_n_compute_maxes_p1 [GB]:    226.97
  Hamiltonian matrix size:
  | Size of matrix non-packed:                 23436
  | Size of matrix packed:           23437
  Available memory per node after allocate_matrices [GB]:    226.96
  Available memory per node after init_comm_sparse_local_matrix_scalapack [GB]:    226.96
  Integrating Hamiltonian matrix: batch-based integration.
  Time summed over all CPUs for integration: real work        1.143 s, elapsed        1.295 s
          Integrate hamiltonian matrix                 :  max(cpu_time)    wall_clock(cpu1)
          | Total time                                  :        0.023 s           0.023 s
  Available memory per node after integrate hamiltonian matrix [GB]:    226.89
  Integrating overlap matrix.
  Time summed over all CPUs for integration: real work        0.594 s, elapsed        0.662 s
  Available memory per node after integrate ovlp matrix [GB]:    226.88
  Deallocating overlap matrix.
  Available memory per node after save_overlap_scalapack [GB]:    226.88

  Updating Kohn-Sham eigenvalues and eigenvectors using ELSI and the ELPA eigensolver.
      Allocating      0.008 MB for copy
      Deallocating copy
  Overlap matrix is not singular
  | Lowest and highest eigenvalues :  0.1675E-03,  0.6274E+01
  Finished singularity check of overlap matrix
  | Time :     0.008 s
  Starting ELPA eigensolver
  Finished Cholesky decomposition
  | Time :     0.002 s
      Allocating      0.016 MB for tmp
      Deallocating tmp
  Finished transformation to standard eigenproblem
  | Time :     0.001 s
  Finished solving standard eigenproblem
  | Time :     0.006 s
      Allocating      0.008 MB for tmp
      Deallocating tmp
  Finished back-transformation of eigenvectors
  | Time :     0.001 s

  Obtaining occupation numbers and electronic chemical potential using ELSI.
  | Note that, for insulating systems, the printed 'chemical potential' value is not uniquely defined.
  | It can be anywhere in the energy gap, as long as it correctly separates occupied and unoccupied states.
  | In systems with a gap, the physically relevant chemical potential is the VBM or HOMO.

  | Chemical potential (Fermi level):    -7.55997259 eV
  Available memory per node after advance_KS_solution [GB]:    226.82
  Writing Kohn-Sham eigenvalues.

  State    Occupation    Eigenvalue [Ha]    Eigenvalue [eV]
      1       2.00000         -19.023328         -517.65110
      2       2.00000         -19.005891         -517.17661
      3       2.00000         -10.179712         -277.00405
      4       2.00000         -10.137231         -275.84808
      5       2.00000          -1.155268          -31.43644
      6       2.00000          -1.084389          -29.50773
      7       2.00000          -0.852679          -23.20259
      8       2.00000          -0.682195          -18.56348
      9       2.00000          -0.597765          -16.26602
     10       2.00000          -0.573693          -15.61099
     11       2.00000          -0.557295          -15.16477
     12       2.00000          -0.528051          -14.36900
     13       2.00000          -0.499168          -13.58305
     14       2.00000          -0.491026          -13.36150
     15       2.00000          -0.425594          -11.58100
     16       2.00000          -0.403202          -10.97168
     17       0.00000          -0.152446           -4.14826
     18       0.00000          -0.057935           -1.57648
     19       0.00000          -0.032331           -0.87978
     20       0.00000          -0.007281           -0.19812
     21       0.00000           0.000913            0.02485
     22       0.00000           0.023501            0.63950
     23       0.00000           0.044020            1.19783
     24       0.00000           0.055791            1.51814
     25       0.00000           0.068611            1.86699
     26       0.00000           0.099611            2.71055
     27       0.00000           0.109272            2.97345
     28       0.00000           0.122383            3.33020
     29       0.00000           0.147792            4.02164
     30       0.00000           0.155990            4.24470
     31       0.00000           0.167210            4.55001
     32       0.00000           0.180468            4.91078
     33       0.00000           0.198840            5.41071
     34       0.00000           0.220274            5.99395

  Highest occupied state (VBM) at    -10.97168139 eV
  | Occupation number:      2.00000000

  Lowest unoccupied state (CBM) at    -4.14826379 eV
  | Occupation number:      0.00000000

  Overall HOMO-LUMO gap:      6.82341760 eV.
  Calculating total energy contributions from superposition of free atom densities.

  Total energy components:
  | Sum of eigenvalues            :        -132.39297799 Ha       -3602.59622909 eV
  | XC energy correction          :         -28.71651961 Ha        -781.41625665 eV
  | XC potential correction       :          36.91158563 Ha        1004.41534905 eV
  | Free-atom electrostatic energy:        -105.14003908 Ha       -2861.00602963 eV
  | Hartree energy correction     :           0.00000000 Ha           0.00000000 eV
  | Entropy correction            :           0.00000000 Ha           0.00000000 eV
  | ---------------------------
  | Total energy                  :        -229.33795104 Ha       -6240.60316631 eV
  | Total energy, T -> 0          :        -229.33795104 Ha       -6240.60316631 eV  <-- do not rely on this value for anything but (periodic) metals
  | Electronic free energy        :        -229.33795104 Ha       -6240.60316631 eV

  Derived energy quantities:
  | Kinetic energy                :         227.33922612 Ha        6186.21509388 eV
  | Electrostatic energy          :        -427.96065755 Ha      -11645.40200354 eV
  | Energy correction for multipole
  | error in Hartree potential    :           0.00000000 Ha           0.00000000 eV
  | Sum of eigenvalues per atom                           :        -450.32452864 eV
  | Total energy (T->0) per atom                          :        -780.07539579 eV  <-- do not rely on this value for anything but (periodic) metals
  | Electronic free energy per atom                       :        -780.07539579 eV
  
  --------------------------------------------
  Constructing auxiliary basis (full product) ...
  
  Product basis:
  | charge radius: extent of product basis function
  | field radius: extent of its Coulomb potential
  | Species   l  charge radius    field radius  multipol momen
  |    C      0     2.594002 A      2.594002 A       -1.350284E-17 a.u.
  |    C      0     3.272245 A      3.272245 A        2.299175E-16 a.u.
  |    C      0     3.232486 A      3.232486 A       -5.751393E-17 a.u.
  |    C      0     3.697756 A      3.697756 A        1.074660E-16 a.u.
  |    C      0     5.271162 A      5.271162 A       -4.638677E-16 a.u.
  |    C      0     5.271162 A      5.271162 A        4.136302E-17 a.u.
  |    C      0     5.335997 A      5.335997 A        1.223881E-16 a.u.
  |    C      0     5.401630 A      5.401630 A        9.531264E-17 a.u.
  |    C      0     5.401630 A      5.401630 A        2.180878E-16 a.u.
  |    C      0     5.468070 A      5.535327 A        5.612303E-16 a.u.
  |    C      0     5.468070 A  4.730799E+12 A            0.711416 a.u.
  |    C      1     3.608443 A      3.608443 A       -1.956581E-17 a.u.
  |    C      1     5.019603 A      5.019603 A        3.926144E-16 a.u.
  |    C      1     5.081344 A      5.081344 A       -6.450527E-17 a.u.
  |    C      1     5.081344 A      5.081344 A       -8.329147E-17 a.u.
  |    C      1     5.081344 A      5.081344 A        7.219707E-17 a.u.
  |    C      1     5.143845 A      5.143845 A       -7.573439E-16 a.u.
  |    C      1     5.401630 A      5.468070 A        8.547890E-16 a.u.
  |    C      1     5.468070 A      5.468070 A       -1.181068E-16 a.u.
  |    C      1     5.468070 A      5.535327 A       -6.842590E-16 a.u.
  |    C      1     5.468070 A  3.215976E+06 A            2.939095 a.u.
  |    C      2     5.081344 A      5.081344 A       -8.773879E-17 a.u.
  |    C      2     5.335997 A      5.335997 A       -1.945044E-16 a.u.
  |    C      2     5.335997 A      5.335997 A       -6.203503E-17 a.u.
  |    C      2     5.468070 A      5.468070 A       -4.176820E-15 a.u.
  |    C      2     5.401630 A      5.401630 A        2.383724E-16 a.u.
  |    C      2     5.401630 A      5.468070 A        5.163620E-15 a.u.
  |    C      2     5.468070 A      5.468070 A        2.386917E-15 a.u.
  |    C      2     5.468070 A      5.535327 A        8.805867E-16 a.u.
  |    C      2     5.468070 A  2.915401E+04 A           13.307049 a.u.
  |    C      3     4.388011 A      4.388011 A       -2.123564E-16 a.u.
  |    C      3     4.441983 A      4.441983 A        3.873459E-16 a.u.
  |    C      3     4.441983 A      4.441983 A        8.964013E-16 a.u.
  |    C      3     4.551928 A      4.551928 A        4.474312E-16 a.u.
  |    C      3     4.664595 A      4.664595 A        1.161650E-14 a.u.
  |    C      3     4.607917 A      4.664595 A        3.337299E-15 a.u.
  |    C      3     4.664595 A      4.664595 A       -1.281983E-14 a.u.
  |    C      3     4.664595 A  2.773647E+03 A           60.060665 a.u.
  |    C      4     4.178599 A      4.178599 A        1.087744E-15 a.u.
  |    C      4     4.282025 A      4.282025 A       -5.020079E-15 a.u.
  |    C      4     4.441983 A      4.441983 A       -1.978681E-14 a.u.
  |    C      4     4.441983 A      4.441983 A       -2.010271E-14 a.u.
  |    C      4     4.441983 A      4.441983 A       -4.397745E-15 a.u.
  |    C      4     4.441983 A      4.441983 A        3.201056E-14 a.u.
  |    C      4     4.441983 A  5.662220E+02 A          111.613912 a.u.
  |    C      5     4.127827 A      4.127827 A        4.847862E-15 a.u.
  |    C      5     4.127827 A      4.127827 A       -9.569201E-15 a.u.
  |    C      5     4.282025 A      4.282025 A       -2.036090E-14 a.u.
  |    C      5     4.334694 A      4.334694 A       -3.950559E-14 a.u.
  |    C      5     4.334694 A  1.974690E+02 A          214.870741 a.u.
  |    C      6     4.028125 A      4.028125 A        2.942827E-15 a.u.
  |    C      6     4.077671 A      4.077671 A        6.985864E-15 a.u.
  |    C      6     4.077671 A  8.528216E+01 A          224.692975 a.u.
  |    C      7     3.979181 A      3.979181 A        1.646556E-14 a.u.
  |    C      7     3.979181 A  4.100379E+01 A          103.412487 a.u.
  |    C      8     3.883070 A  2.842669E+01 A          296.426571 a.u.
  |    O      0     2.043000 A      2.043000 A       -2.349096E-17 a.u.
  |    O      0     4.202559 A      4.202559 A        3.204095E-16 a.u.
  |    O      0     4.202559 A      4.202559 A       -8.480432E-17 a.u.
  |    O      0     4.467453 A      4.467453 A       -3.665543E-16 a.u.
  |    O      0     4.987044 A      4.987044 A        3.036176E-16 a.u.
  |    O      0     4.987044 A      4.987044 A        2.727535E-16 a.u.
  |    O      0     5.366593 A      5.432602 A       -3.649167E-17 a.u.
  |    O      0     5.432602 A      5.499423 A        2.337567E-16 a.u.
  |    O      0     5.432602 A  4.308149E+12 A            0.647858 a.u.
  |    O      1     4.151495 A      4.151495 A        3.441198E-17 a.u.
  |    O      1     4.467453 A      4.467453 A        3.000409E-17 a.u.
  |    O      1     4.634338 A      4.634338 A       -3.356839E-16 a.u.
  |    O      1     4.634338 A      4.634338 A       -1.799765E-16 a.u.
  |    O      1     4.634338 A      4.634338 A       -2.244090E-16 a.u.
  |    O      1     4.578029 A      4.578029 A       -9.461800E-17 a.u.
  |    O      1     5.432602 A      5.432602 A       -5.441582E-16 a.u.
  |    O      1     5.432602 A      5.499423 A       -4.836195E-16 a.u.
  |    O      1     5.432602 A      5.432602 A       -1.981899E-16 a.u.
  |    O      1     5.432602 A  2.965977E+06 A            2.499905 a.u.
  |    O      2     4.578029 A      4.578029 A       -5.506765E-17 a.u.
  |    O      2     5.236971 A      5.236971 A        3.314528E-17 a.u.
  |    O      2     5.236971 A      5.236971 A        5.885926E-16 a.u.
  |    O      2     5.432602 A      5.432602 A        4.439600E-16 a.u.
  |    O      2     5.432602 A      5.432602 A       -1.666606E-15 a.u.
  |    O      2     5.432602 A      5.499423 A       -5.311670E-15 a.u.
[...]
  | Times   63:        0.010       0.059       0.021       0.005       0.000       0.006       0.043       0.145
  | Times  sum:        0.865       2.398       0.621       0.745       0.128       1.791       2.701       9.249

  Decomposition of Other based on code block (only on MPI task 0):
  Times             Block #1    Block #2    Block #3    Block #4    Block #5    Block #6    Block #7    Block #8
  | Times    0:        0.000       0.000       0.000       0.000       0.000       0.000       0.002       0.000

  Times             Block #9   Block #10   Block #11   Block #12   Block #13   Block #14   Block #15   Block #16
  | Times    0:        0.000       0.000       0.001       0.004       0.000       0.000       0.000       0.000

  Times            Block Sum    Expected
  | Times    0:        0.008       0.042
  Time for Fock matrix mixing     0.001

  Updating Kohn-Sham eigenvalues and eigenvectors using ELSI and the ELPA eigensolver.
  Starting ELPA eigensolver
      Allocating      0.016 MB for tmp
      Deallocating tmp
  Finished transformation to standard eigenproblem
  | Time :     0.001 s
  Finished solving standard eigenproblem
  | Time :     0.005 s
      Allocating      0.008 MB for tmp
      Deallocating tmp
  Finished back-transformation of eigenvectors
  | Time :     0.000 s

  Obtaining occupation numbers and electronic chemical potential using ELSI.
  | Note that, for insulating systems, the printed 'chemical potential' value is not uniquely defined.
  | It can be anywhere in the energy gap, as long as it correctly separates occupied and unoccupied states.
  | In systems with a gap, the physically relevant chemical potential is the VBM or HOMO.

  | Chemical potential (Fermi level):    -4.15227870 eV
  Writing Kohn-Sham eigenvalues.

  State    Occupation    Eigenvalue [Ha]    Eigenvalue [eV]
      1       2.00000         -19.289969         -524.90677
      2       2.00000         -19.233959         -523.38265
      3       2.00000         -10.377452         -282.38482
      4       2.00000         -10.253530         -279.01274
      5       2.00000          -1.138521          -30.98073
      6       2.00000          -1.049924          -28.56989
      7       2.00000          -0.787197          -21.42071
      8       2.00000          -0.631306          -17.17872
      9       2.00000          -0.516817          -14.06331
     10       2.00000          -0.501779          -13.65409
     11       2.00000          -0.489763          -13.32713
     12       2.00000          -0.429810          -11.69573
     13       2.00000          -0.419600          -11.41791
     14       2.00000          -0.411549          -11.19881
     15       2.00000          -0.345358           -9.39766
     16       2.00000          -0.301855           -8.21389
     17       0.00000          -0.003332           -0.09067
     18       0.00000           0.006960            0.18940
     19       0.00000           0.031862            0.86700
     20       0.00000           0.062592            1.70321
     21       0.00000           0.064271            1.74890
     22       0.00000           0.115668            3.14750
     23       0.00000           0.141679            3.85529
     24       0.00000           0.152040            4.13722
     25       0.00000           0.162373            4.41840
     26       0.00000           0.182258            4.95949
     27       0.00000           0.186007            5.06152
     28       0.00000           0.212169            5.77341
     29       0.00000           0.236221            6.42790
     30       0.00000           0.245773            6.68782
     31       0.00000           0.258932            7.04590
     32       0.00000           0.282042            7.67476
     33       0.00000           0.294914            8.02503
     34       0.00000           0.309502            8.42197

  Highest occupied state (VBM) at     -8.21389172 eV
  | Occupation number:      2.00000000

  Lowest unoccupied state (CBM) at    -0.09066569 eV
  | Occupation number:      0.00000000

  Overall HOMO-LUMO gap:      8.12322603 eV.

  Total energy components:
  | Sum of eigenvalues            :        -132.35677628 Ha       -3601.61113043 eV
  | XC energy correction          :         -15.16083604 Ha        -412.54733875 eV
  | XC potential correction       :          28.57256063 Ha         777.49893351 eV
  | Free-atom electrostatic energy:        -105.14003908 Ha       -2861.00602963 eV
  | Hartree energy correction     :          -5.08192355 Ha        -138.28617579 eV
  | Entropy correction            :           0.00000000 Ha           0.00000000 eV
  | ---------------------------
  | Total energy                  :        -229.16701431 Ha       -6235.95174109 eV
  | Total energy, T -> 0          :        -229.16701431 Ha       -6235.95174109 eV  <-- do not rely on this value for anything but (periodic) metals
  | Electronic free energy        :        -229.16701431 Ha       -6235.95174109 eV

  Derived energy quantities:
  | Kinetic energy                :         228.39999866 Ha        6215.08018341 eV
  | Electrostatic energy          :        -428.30283082 Ha      -11654.71301192 eV
  | Energy correction for multipole
  | error in Hartree potential    :          -0.01390819 Ha          -0.37846108 eV
  | Sum of eigenvalues per atom                           :        -450.20139130 eV
  | Total energy (T->0) per atom                          :        -779.49396764 eV  <-- do not rely on this value for anything but (periodic) metals
  | Electronic free energy per atom                       :        -779.49396764 eV

  Self-consistency convergence accuracy:
  | Change of charge density      :  0.1534E-05
  | Change of unmixed KS density  :  0.6003E-05
  | Change of sum of eigenvalues  : -0.2095E-04 eV
  | Change of total energy        :  0.7896E-05 eV

  Writing Kohn-Sham eigenvalues.

  State    Occupation    Eigenvalue [Ha]    Eigenvalue [eV]
      1       2.00000         -19.289969         -524.90677
      2       2.00000         -19.233959         -523.38265
      3       2.00000         -10.377452         -282.38482
      4       2.00000         -10.253530         -279.01274
      5       2.00000          -1.138521          -30.98073
      6       2.00000          -1.049924          -28.56989
      7       2.00000          -0.787197          -21.42071
      8       2.00000          -0.631306          -17.17872
      9       2.00000          -0.516817          -14.06331
     10       2.00000          -0.501779          -13.65409
     11       2.00000          -0.489763          -13.32713
     12       2.00000          -0.429810          -11.69573
     13       2.00000          -0.419600          -11.41791
     14       2.00000          -0.411549          -11.19881
     15       2.00000          -0.345358           -9.39766
     16       2.00000          -0.301855           -8.21389
     17       0.00000          -0.003332           -0.09067
     18       0.00000           0.006960            0.18940
     19       0.00000           0.031862            0.86700
     20       0.00000           0.062592            1.70321
     21       0.00000           0.064271            1.74890
     22       0.00000           0.115668            3.14750
     23       0.00000           0.141679            3.85529
     24       0.00000           0.152040            4.13722
     25       0.00000           0.162373            4.41840
     26       0.00000           0.182258            4.95949
     27       0.00000           0.186007            5.06152
     28       0.00000           0.212169            5.77341
     29       0.00000           0.236221            6.42790
     30       0.00000           0.245773            6.68782
     31       0.00000           0.258932            7.04590
     32       0.00000           0.282042            7.67476
     33       0.00000           0.294914            8.02503
     34       0.00000           0.309502            8.42197

  Highest occupied state (VBM) at     -8.21389172 eV
  | Occupation number:      2.00000000

  Lowest unoccupied state (CBM) at    -0.09066569 eV
  | Occupation number:      0.00000000

  Overall HOMO-LUMO gap:      8.12322603 eV.

  | Chemical Potential                          :    -4.15227870 eV
  | Note that, for insulating systems, the printed 'chemical potential' value is not uniquely defined.
  | It can be anywhere in the energy gap, as long as it correctly separates occupied and unoccupied states.
  | In systems with a gap, the physically relevant chemical potential is the VBM or HOMO.

  Self-consistency cycle converged.


------------------------------------------------------------
  End self-consistency iteration #    17       :  max(cpu_time)    wall_clock(cpu1)
  | Time for this iteration                     :        0.193 s           0.190 s
  | Charge density update                       :        0.000 s           0.000 s
  | Density mixing                              :        0.009 s           0.005 s
  | Hartree multipole update                    :        0.002 s           0.002 s
  | Hartree multipole summation                 :        0.008 s           0.008 s
  | Integration                                 :        0.021 s           0.021 s
  | Fock matrix evaluation                      :        0.146 s           0.145 s
  | Solution of K.-S. eqns.                     :        0.007 s           0.006 s
  | Total energy evaluation                     :        0.000 s           0.000 s

  Partial memory accounting:
  | Current value for overall tracked memory usage:
  |   Minimum:       10.677 MB (on task 55)
  |   Maximum:       23.522 MB (on task 52)
  |   Average:       13.850 MB
  | Peak value for overall tracked memory usage:
  |   Minimum:       13.001 MB (on task 55 after allocating gradient_basis_wave)
  |   Maximum:       25.941 MB (on task 12 after allocating ovlp3fn2%n)
  |   Average:       16.230 MB
  | Largest tracked array allocation so far:
  |   Minimum:        8.899 MB (ovlp3fn2%dat on task  7)
  |   Maximum:       21.659 MB (ovlp3fn2%dat on task  4)
  |   Average:       12.086 MB
  Note:  These values currently only include a subset of arrays which are explicitly tracked.
  The "true" memory usage will be greater.
------------------------------------------------------------

  Energy and forces in a compact form:
  | Total energy uncorrected      :         -0.623595174108622E+04 eV
  | Total energy corrected        :         -0.623595174108622E+04 eV  <-- do not rely on this value for anything but (periodic) metals
  | Electronic free energy        :         -0.623595174108622E+04 eV

  ------------------------------------ 
  Start decomposition of the XC Energy 
  ------------------------------------ 
  X and C from original XC functional choice 
  Hartree-Fock Energy :         -7.051672716 Ha           -191.885777647 eV
  X Energy            :        -28.200930601 Ha           -767.386365841 eV
  C Energy            :         -1.063251209 Ha            -28.932537464 eV
  XC Energy w/o HF    :        -22.212509094 Ha           -604.433125659 eV
  Total XC Energy     :        -29.264181810 Ha           -796.318903305 eV
  ------------------------------------ 
  LDA X and C from self-consistent density 
  X Energy LDA        :        -25.592958178 Ha           -696.419825467 eV
  C Energy LDA        :         -2.112591255 Ha            -57.486532931 eV
  ------------------------------------ 
  End decomposition of the XC Energy 
  ------------------------------------ 

------------------------------------------------------------

------------------------------------------------------------------------------
  Final output of selected total energy values:

  The following output summarizes some interesting total energy values
  at the end of a run (AFTER all relaxation, molecular dynamics, etc.).

  | Total energy of the DFT / Hartree-Fock s.c.f. calculation      :          -6235.951741086 eV
  | Final zero-broadening corrected energy (caution - metals only) :          -6235.951741086 eV
  | For reference only, the value of 1 Hartree used in FHI-aims is :             27.211384500 eV

  Before relying on these values, please be sure to understand exactly which
  total energy value is referred to by a given number. Different objects may
  all carry the same name 'total energy'. Definitions:

  Total energy of the DFT / Hartree-Fock s.c.f. calculation:
  | Note that this energy does not include ANY quantities calculated after the
  | s.c.f. cycle, in particular not ANY RPA, MP2, etc. many-body perturbation terms.

  Final zero-broadening corrected energy:
  | For metallic systems only, a broadening of the occupation numbers at the Fermi
  | level can be extrapolated back to zero broadening by an electron-gas inspired
  | formula. For all systems that are not real metals, this value can be
  | meaningless and should be avoided.

------------------------------------------------------------------------------
  Methods described in the following list of references were used in this FHI-aims run.
  If you publish the results, please make sure to cite these reference if they apply.
  FHI-aims is an academic code, and for our developers (often, Ph.D. students
  and postdocs), scientific credit in the community is essential.
  Thank you for helping us!

  For any use of FHI-aims, please cite:

    Volker Blum, Ralf Gehrke, Felix Hanke, Paula Havu, Ville Havu,
    Xinguo Ren, Karsten Reuter, and Matthias Scheffler
    'Ab initio molecular simulations with numeric atom-centered orbitals'
    Computer Physics Communications 180, 2175-2196 (2009)
    http://doi.org/10.1016/j.cpc.2009.06.022


  For Hartree-Fock, hybrid functionals, or many-body perturbation theory used in your run, please cite:

    Xinguo Ren, Patrick Rinke, Volker Blum, Juergen Wieferink, Alex Tkatchenko,
    Andrea Sanfilippo, Karsten Reuter, and Matthias Scheffler,
    'Resolution-of-identity approach to Hartree-Fock, hybrid density functionals,
    RPA, MP2, and GW with numeric atom-centered orbital basis functions'
    New Journal of Physics 14, 053020 (2012).
    http://doi.org/10.1088/1367-2630/14/5/053020


  For using hybrid functionals or Hartree-Fock in FHI-aims, please cite

    Sergey V. Levchenko, Xinguo Ren, Juergen Wieferink, Rainer Joahanni,
    Patrick Rinke, Volker Blum, and Matthias Scheffler
    Hybrid functionals for large periodic systems in an all-electron,
    numeric atom-centered basis framework

    Comput. Phys. Commun. 192, 60-69 (2015)
    https://doi.org/10.1016/j.cpc.2015.02.021


  For using hybrid functionals or Hartree-Fock in FHI-aims, please also cite

    Sebastian Kokott, Florian Merz, Yi Yao, Christian Carbogno, Mariana Rossi,
    Ville Havu, Markus Rampp, Matthias Scheffler, and Volker Blum
    Efficient all-electron hybrid density functionals for atomistic simulations
    beyond 10,000 atoms

    J. Chem. Phys. 161, 024112 (2024)
    https://doi.org/10.1063/5.0208103


  The ELSI infrastructure was used in your run to solve the Kohn-Sham electronic structure.
  Please check out https://wordpress.elsi-interchange.org to learn more.
  If scalability is important for your project, please acknowledge ELSI by citing:

    V. W-z. Yu, F. Corsetti, A. Garcia, W. P. Huhn, M. Jacquelin, W. Jia,
    B. Lange, L. Lin, J. Lu, W. Mi, A. Seifitokaldani, A. Vazquez-Mayagoitia,
    C. Yang, H. Yang, and V. Blum
    'ELSI: A unified software interface for Kohn-Sham electronic structure solvers'
    Computer Physics Communications 222, 267-285 (2018).
    http://doi.org/10.1016/j.cpc.2017.09.007


  For the real-space grid partitioning and parallelization used in this calculation, please cite:

    Ville Havu, Volker Blum, Paula Havu, and Matthias Scheffler,
    'Efficient O(N) integration for all-electron electronic structure calculation'
    'using numerically tabulated basis functions'
    Journal of Computational Physics 228, 8367-8379 (2009).
    http://doi.org/10.1016/j.jcp.2009.08.008


  The high-level electronic structure method used in your calculation
  employed our efficient localized resolution of identity for the Coulomb operator.
  Some calculations, especially large-scale hybrid density functional theory,
  are only possible thanks to this development. For this feature, please cite:

    Arvid Ihrig, Juergen Wieferink, Igor Ying Zhang, Matti Ropo, Xinguo Ren,
    Patrick Rinke, Matthias Scheffler, and Volker Blum,
    'Accurate localized resolution of identity approach for linear-scaling
    hybrid density functionals and for many-body perturbation theory'
    New Journal of Physics 117, 093020 (2015).
    http://doi.org/10.1088/1367-2630/17/9/093020

  Of course, there are many other important community references, e.g., those cited in the
  above references. Our list is limited to references that describe implementations in the
  FHI-aims code. The reason is purely practical (length of this list) - please credit others as well.
------------------------------------------------------------
Warnings summary:

At least    2 warnings were raised during execution.

------------------------------------------------------------
          Leaving FHI-aims.
          Date     :  20251111, Time     :  213917.852

          Computational steps:
          | Number of self-consistency cycles          :           17
          | Number of SCF (re)initializations          :            1

          Detailed time accounting                     :  max(cpu_time)    wall_clock(cpu1)
          | Total time                                  :        6.414 s           7.328 s
          | Preparation time                            :        0.162 s           0.165 s
          | Boundary condition initalization            :        0.009 s           0.008 s
          | Grid partitioning                           :        0.036 s           0.036 s
          | Preloading free-atom quantities on grid     :        0.015 s           0.015 s
          | Free-atom superposition energy              :        0.002 s           0.002 s
          | Total time for integrations                 :        0.397 s           0.399 s
          | Product basis setup: Total time             :        1.963 s           2.407 s
          | Total time evaluating exchange matrix       :        2.598 s           2.713 s
          | Total time for solution of K.-S. equations  :        0.141 s           0.140 s
          | Total time for density update               :        0.685 s           0.683 s
          | Total time for mixing                       :        0.180 s           0.079 s
          | Total time for Hartree multipole update     :        0.030 s           0.027 s
          | Total time for Hartree multipole sum        :        0.139 s           0.141 s
          | Total time for total energy evaluation      :        0.003 s           0.001 s
          | Total time for scaled ZORA corrections      :        0.000 s           0.000 s

          Partial memory accounting:
          | Residual value for overall tracked memory usage across tasks:     0.000000 MB (should be 0.000000 MB)
          | Peak values for overall tracked memory usage:
          |   Minimum:       13.001 MB (on task 55 after allocating gradient_basis_wave)
          |   Maximum:       25.941 MB (on task 12 after allocating ovlp3fn2%n)
          |   Average:       16.230 MB
          | Largest tracked array allocation:
          |   Minimum:        8.899 MB (ovlp3fn2%dat on task  7)
          |   Maximum:       21.659 MB (ovlp3fn2%dat on task  4)
          |   Average:       12.086 MB
          Note:  These values currently only include a subset of arrays which are explicitly tracked.
          The "true" memory usage will be greater.

          Have a nice day.
------------------------------------------------------------
