------------------------------------------------------------
          Invoking FHI-aims ...

          When using FHI-aims, please cite the following reference:

            Volker Blum, Ralf Gehrke, Felix Hanke, Paula Havu,
            Ville Havu, Xinguo Ren, Karsten Reuter, and Matthias Scheffler,
            'Ab Initio Molecular Simulations with Numeric Atom-Centered Orbitals',
            Computer Physics Communications 180, 2175-2196 (2009)

          In addition, many other developments in FHI-aims are likely important for
          your particular application. If so, please cite them. A partial list of references
          is written at the end of this file. Thank you for giving credit to the authors
          of these developments.

          For general information about FHI-aims please find us at

            https://fhi-aims.org

          Online tutorials can be found at

            https://fhi-aims-club.gitlab.io/tutorials/tutorials-overview/

          For any questions about FHI-aims, please visit our slack channel at

            https://fhi-aims.slack.com

          and our main development and support site at

            https://aims-git.rz-berlin.mpg.de .

          The latter site, in particular, has a wiki to collect information, as well
          as an issue tracker to log discussions, suggest improvements, and report issues
          or bugs. https://aims-git.rz-berlin.mpg.de is also the main development site
          of the project and all new and updated code versions can be obtained there.
          Please send an email to aims-coordinators@fhi-berlin.mpg.de and we will add
          you to these sites. They are for you and everyone is welcome there.

------------------------------------------------------------



  Date     :  20250714, Time     :  132616.903
  Time zero on CPU 1             :   0.633043000000000E+01  s.
  Internal wall clock time zero  :           521731576.903  s.

  FHI-aims created a unique identifier for this run for later identification
  aims_uuid : BC2C0B6E-49CB-4877-A1A7-6F6359686ECB

  Build configuration of the current instance of FHI-aims
  -------------------------------------------------------
  FHI-aims version      : 250403
  Commit number         : 316072d87
  CMake host system     : Linux-5.14.21-150400.24.46_12.0.70-cray_shasta_c
  CMake version         : 3.20.4
  Fortran compiler      : /opt/cray/pe/craype/2.7.19/bin/ftn (GNU) version 11.2.0
  Fortran compiler flags: -O2 -fPIC -fallow-argument-mismatch -ffree-line-length-none
  C compiler            : /opt/cray/pe/craype/2.7.19/bin/cc (GNU) version 11.2.0
  C compiler flags      : -O2
  C++ compiler          : /opt/cray/pe/gcc/11.2.0/bin/c++ (GNU) version 11.2.0
  C++ compiler flags    : -O2
  HIP compiler          :
  HIP compiler flags    :
  HIP GPU arch          :
  Using MPI
  Using ScaLAPACK
  Using LibXC
  Using i-PI
  Using RLSY
  Linking against:

  Using      128 parallel tasks.
  Task        0 on host nid001204 reporting.
  Task        1 on host nid001204 reporting.
  Task        2 on host nid001204 reporting.
  Task        3 on host nid001204 reporting.
  Task        4 on host nid001204 reporting.
  Task        5 on host nid001204 reporting.
  Task        6 on host nid001204 reporting.
  Task        7 on host nid001204 reporting.
  Task        8 on host nid001204 reporting.
  Task        9 on host nid001204 reporting.
  Task       10 on host nid001204 reporting.
  Task       11 on host nid001204 reporting.
  Task       12 on host nid001204 reporting.
  Task       13 on host nid001204 reporting.
  Task       14 on host nid001204 reporting.
  Task       15 on host nid001204 reporting.
  Task       16 on host nid001204 reporting.
  Task       17 on host nid001204 reporting.
  Task       18 on host nid001204 reporting.
  Task       19 on host nid001204 reporting.
  Task       20 on host nid001204 reporting.
  Task       21 on host nid001204 reporting.
  Task       22 on host nid001204 reporting.
  Task       23 on host nid001204 reporting.
  Task       24 on host nid001204 reporting.
  Task       25 on host nid001204 reporting.
  Task       26 on host nid001204 reporting.
  Task       27 on host nid001204 reporting.
  Task       28 on host nid001204 reporting.
  Task       29 on host nid001204 reporting.
  Task       30 on host nid001204 reporting.
  Task       31 on host nid001204 reporting.
  Task       32 on host nid001204 reporting.
  Task       33 on host nid001204 reporting.
  Task       34 on host nid001204 reporting.
  Task       35 on host nid001204 reporting.
  Task       36 on host nid001204 reporting.
  Task       37 on host nid001204 reporting.
  Task       38 on host nid001204 reporting.
  Task       39 on host nid001204 reporting.
  Task       40 on host nid001204 reporting.
  Task       41 on host nid001204 reporting.
  Task       42 on host nid001204 reporting.
  Task       43 on host nid001204 reporting.
  Task       44 on host nid001204 reporting.
  Task       45 on host nid001204 reporting.
  Task       46 on host nid001204 reporting.
  Task       47 on host nid001204 reporting.
  Task       48 on host nid001204 reporting.
  Task       49 on host nid001204 reporting.
  Task       50 on host nid001204 reporting.
  Task       51 on host nid001204 reporting.
  Task       52 on host nid001204 reporting.
  Task       53 on host nid001204 reporting.
  Task       54 on host nid001204 reporting.
  Task       55 on host nid001204 reporting.
  Task       56 on host nid001204 reporting.
  Task       57 on host nid001204 reporting.
  Task       58 on host nid001204 reporting.
  Task       59 on host nid001204 reporting.
  Task       60 on host nid001204 reporting.
  Task       61 on host nid001204 reporting.
  Task       62 on host nid001204 reporting.
  Task       63 on host nid001204 reporting.
  Task       64 on host nid001204 reporting.
  Task       65 on host nid001204 reporting.
  Task       66 on host nid001204 reporting.
  Task       67 on host nid001204 reporting.
  Task       68 on host nid001204 reporting.
  Task       69 on host nid001204 reporting.
  Task       70 on host nid001204 reporting.
  Task       71 on host nid001204 reporting.
  Task       72 on host nid001204 reporting.
  Task       73 on host nid001204 reporting.
  Task       74 on host nid001204 reporting.
  Task       75 on host nid001204 reporting.
  Task       76 on host nid001204 reporting.
  Task       77 on host nid001204 reporting.
  Task       78 on host nid001204 reporting.
  Task       79 on host nid001204 reporting.
  Task       80 on host nid001204 reporting.
  Task       81 on host nid001204 reporting.
  Task       82 on host nid001204 reporting.
  Task       83 on host nid001204 reporting.
  Task       84 on host nid001204 reporting.
  Task       85 on host nid001204 reporting.
  Task       86 on host nid001204 reporting.
  Task       87 on host nid001204 reporting.
  Task       88 on host nid001204 reporting.
  Task       89 on host nid001204 reporting.
  Task       90 on host nid001204 reporting.
  Task       91 on host nid001204 reporting.
  Task       92 on host nid001204 reporting.
  Task       93 on host nid001204 reporting.
  Task       94 on host nid001204 reporting.
  Task       95 on host nid001204 reporting.
  Task       96 on host nid001204 reporting.
  Task       97 on host nid001204 reporting.
  Task       98 on host nid001204 reporting.
  Task       99 on host nid001204 reporting.
  Task      100 on host nid001204 reporting.
  Task      101 on host nid001204 reporting.
  Task      102 on host nid001204 reporting.
  Task      103 on host nid001204 reporting.
  Task      104 on host nid001204 reporting.
  Task      105 on host nid001204 reporting.
  Task      106 on host nid001204 reporting.
  Task      107 on host nid001204 reporting.
  Task      108 on host nid001204 reporting.
  Task      109 on host nid001204 reporting.
  Task      110 on host nid001204 reporting.
  Task      111 on host nid001204 reporting.
  Task      112 on host nid001204 reporting.
  Task      113 on host nid001204 reporting.
  Task      114 on host nid001204 reporting.
  Task      115 on host nid001204 reporting.
  Task      116 on host nid001204 reporting.
  Task      117 on host nid001204 reporting.
  Task      118 on host nid001204 reporting.
  Task      119 on host nid001204 reporting.
  Task      120 on host nid001204 reporting.
  Task      121 on host nid001204 reporting.
  Task      122 on host nid001204 reporting.
  Task      123 on host nid001204 reporting.
  Task      124 on host nid001204 reporting.
  Task      125 on host nid001204 reporting.
  Task      126 on host nid001204 reporting.
  Task      127 on host nid001204 reporting.

  Obtaining array dimensions for all initial allocations:
  
  -----------------------------------------------------------------------
  Parsing control.in (first pass over file, find array dimensions only).
  The contents of control.in will be repeated verbatim below
  unless switched off by setting 'verbatim_writeout .false.' .
  in the first line of control.in .
  -----------------------------------------------------------------------
  
  #===============================================================================
  # Created using the Atomic Simulation Environment (ASE)
  
  # Mon Jul 14 13:26:13 2025
  
  #===============================================================================
  xc                                 PBE
  output_level                       full
  relativistic                       atomic_zora scalar
  occupation_type                    gaussian 0.01
  mixer                              pulay
  n_max_pulay                        10
  KS_method                          parallel
  RI_method                          LVL
  collect_eigenvectors               .true.
  density_update_method              density_matrix
  atomic_solver_xc                   PBE
  basis_threshold                    1e-05
  override_illconditioning           .true.
  override_initial_charge_check      .true.
  use_2d_corr                        .false.
  qm_embedding_mo_localise           .true.
  qm_embedding_calc                  1
  charge                             -0.0
  #===============================================================================
  
  ################################################################################
  #
  #  FHI-aims code project
  # Igor Ying Zhang and Xinguo Ren, Fritz Haber Institute Berlin, 2012
  #
  #  Suggested "NAO-VCC-3Z" defaults for C atom (to be pasted into control.in file)
  #
  #  Please cite:
  #
  #  Igor Ying Zhang, Xinguo Ren, Patrick Rinke, Volker Blum, and Matthias Scheffler,
  #  "Numeric atom-centered-orbital basis sets with valence-correlation consistency from H to Ar"
  #  New Journal of Physics 15, 123033 (2013).
  #  http://dx.doi.org/10.1088/1367-2630/15/12/123033
  #
  ################################################################################
    species        C
  #     set basis set reference for FHI-aims output
      cite_reference NAO-VCC-2013
  #     global species definitions
      nucleus             6
      mass                12.0107
  #
      l_hartree           6
  #
      cut_pot             4.0  2.0  1.0
      basis_dep_cutoff    0e-4
  #
      radial_base         34 7.0
      radial_multiplier   2
      angular_grids       specified
        division   0.2187   50
        division   0.4416  110
        division   0.6335  194
        division   0.7727  302
        division   0.8772  434
        division   0.9334  590
  #      division   0.9924  770
  #      division   1.0230  974
  #      division   1.5020 1202
  #      outer_grid  974
        outer_grid  770
  #      outer_grid  434
  ################################################################################
  #
  #  Definition of "minimal" basis
  #
  ################################################################################
  #     valence basis states
      valence      2  s   2.
      valence      2  p   2.
  #     ion occupancy
      ion_occ      2  s   1.
      ion_occ      2  p   1.
  ################################################################################
  
   basis_acc              1e-04
  #============================================
  # Optimization in      C for       NAO-VCC-3Z
  #============================================
  # (sp) correlation set
   hydro     1     s      1.80690099
   hydro     1     s      3.25966754
   hydro     2     p      1.97404286
   hydro     2     p      3.16616778
  # polarization set
   hydro     3     d      5.89063938
   hydro     3     d      6.67716137
   hydro     4     f     10.14967498
  # (sp) enhanced minimal set
   hydro     1     s      6.77306992
   hydro     1     s     13.85913422
   hydro     2     p      3.64746093
  ################################################################################
  #
  #  FHI-aims code project
  # Igor Ying Zhang and Xinguo Ren, Fritz Haber Institute Berlin, 2012
  #
  #  Suggested "NAO-VCC-3Z" defaults for O atom (to be pasted into control.in file)
  #
  #  Please cite:
  #
  #  Igor Ying Zhang, Xinguo Ren, Patrick Rinke, Volker Blum, and Matthias Scheffler,
  #  "Numeric atom-centered-orbital basis sets with valence-correlation consistency from H to Ar"
  #  New Journal of Physics 15, 123033 (2013).
  #  http://dx.doi.org/10.1088/1367-2630/15/12/123033
  #
  ################################################################################
    species        O
  #     set basis set reference for FHI-aims output
      cite_reference NAO-VCC-2013
  #     global species definitions
      nucleus             8
      mass                15.9994
  #
      l_hartree           6
  #
      cut_pot             4.0  2.0  1.0
      basis_dep_cutoff    0e-4
  #
      radial_base         36 7.0
      radial_multiplier   2
      angular_grids       specified
        division   0.1817   50
        division   0.3417  110
        division   0.4949  194
        division   0.6251  302
        division   0.8014  434
        division   0.8507  590
  #      division   0.8762  770
  #      division   0.9023  974
  #      division   1.2339 1202
  #      outer_grid 974
        outer_grid 770
  #      outer_grid  434
  ################################################################################
  #
  #  Definition of "minimal" basis
  #
  ################################################################################
  #     valence basis states
      valence      2  s   2.
      valence      2  p   4.
  #     ion occupancy
      ion_occ      2  s   1.
      ion_occ      2  p   3.
  ################################################################################
  
   basis_acc              1e-04
  #============================================
  # Optimization in      O for       NAO-VCC-3Z
  #============================================
  # (sp) correlation set
   hydro     1     s      1.84877109
   hydro     1     s      3.09577821
   hydro     2     p      2.44895734
   hydro     2     p      5.85722578
  # polarization set
   hydro     3     d      8.53701653
   hydro     3     d      8.96275978
   hydro     4     f     14.09619628
  # (sp) enhanced minimal basis
   hydro     1     s      3.62165559
   hydro     1     s      5.97272514
   hydro     2     p      6.29404180
  ################################################################################
  #
  #  FHI-aims code project
  #  Igor Ying Zhang and Xinguo Ren, Fritz Haber Institute Berlin, 2012
  #
  #  Suggested "NAO-VCC-3Z" defaults for H atom (to be pasted into control.in file)
  #
  #  Please cite:
  #
  #  Igor Ying Zhang, Xinguo Ren, Patrick Rinke, Volker Blum, and Matthias Scheffler,
  #  "Numeric atom-centered-orbital basis sets with valence-correlation consistency from H to Ar"
  #  New Journal of Physics 15, 123033 (2013).
  #  http://dx.doi.org/10.1088/1367-2630/15/12/123033
  #
  ################################################################################
    species        H
  #     set basis set reference for FHI-aims output
      cite_reference NAO-VCC-2013
  #     global species definitions
      nucleus             1
      mass                1.00794
  #
      l_hartree           6
  #
      cut_pot             4.0  2.0  1.0
      basis_dep_cutoff    0e-4
  #
      radial_base         24 7.0
      radial_multiplier   2
      angular_grids       specified
        division   0.1930   50
        division   0.3175  110
        division   0.4293  194
        division   0.5066  302
        division   0.5626  434
        division   0.5922  590
  #      division   0.6227  974
  #      division   0.6868 1202
        outer_grid  770
  #      outer_grid  434
  ################################################################################
  #
  #  Definition of "minimal" basis
  #
  ################################################################################
  #     valence basis states
      valence      1  s   1.
  #     ion occupancy
      ion_occ      1  s   0.5
  ################################################################################
  
  
   basis_acc              1e-04
  #============================================
  # Optimization in      H for       NAO-VCC-3Z
  #============================================
  # (sp) correlation set
   hydro     1     s      1.21957223
   hydro     1     s      1.79015338
   hydro     2     p      3.43862914
   hydro     2     p      3.48684723
  # polarization set
   hydro     3     d      6.20828695
  # (sp) enhanced minimal set
   hydro     1     s      2.62768292
  
  -----------------------------------------------------------------------
  Completed first pass over input file control.in .
  -----------------------------------------------------------------------
  
  
  -----------------------------------------------------------------------
  Parsing geometry.in (first pass over file, find array dimensions only).
  The contents of geometry.in will be repeated verbatim below
  unless switched off by setting 'verbatim_writeout .false.' .
  in the first line of geometry.in .
  -----------------------------------------------------------------------
  
  #===============================================================================
  # Created using the Atomic Simulation Environment (ASE)
  
  # Mon Jul 14 13:26:13 2025
  
  #=======================================================
  atom -0.0377943100000000 1.5163727700000000 -1.7389274699999999 C
  qm_embedding_region 1
  atom -1.1956852800000000 2.3616629699999998 -1.2218749900000001 C
  qm_embedding_region 1
  atom -2.4182972600000001 1.7645982200000001 -1.6510676799999999 O
  qm_embedding_region 1
  atom -0.1648439100000000 0.4727046100000000 -1.4133626699999999 H
  qm_embedding_region 1
  atom -1.1157250700000001 3.3828339399999998 -1.6236803200000001 H
  qm_embedding_region 1
  atom -0.0501143100000000 1.5119425500000001 -2.8394032100000000 H
  qm_embedding_region 1
  atom -3.1433310200000002 2.3800120300000001 -1.4638928200000001 H
  qm_embedding_region 1
  atom -1.1619650600000000 2.4004116099999999 -0.1218973900000000 H
  qm_embedding_region 1
  atom -4.7738726199999997 -3.9732622100000001 2.0937187399999999 C
  qm_embedding_region 1
  atom -4.2734860000000001 -3.0275456400000000 0.9967403700000000 C
  qm_embedding_region 1
  atom -4.2535942499999999 -3.7521138500000002 3.0373312900000000 H
  qm_embedding_region 1
  atom -4.3595134599999996 -1.7049052300000000 1.4432162799999999 O
  qm_embedding_region 1
  atom -3.9924159399999999 -1.1090525200000001 0.7498436300000000 H
  qm_embedding_region 1
  atom -4.8928751699999999 -3.1732709600000000 0.0951177300000000 H
  qm_embedding_region 1
  atom -3.2297188399999999 -3.2888903300000001 0.7496481500000000 H
  qm_embedding_region 1
  atom -5.8461641899999996 -3.7893040700000000 2.2593167599999999 H
  qm_embedding_region 1
  atom 1.3289059100000000 1.9939864800000000 -0.1585804200000000 H
  qm_embedding_region 2
  atom 2.4519061999999998 1.2243493200000000 -2.8981544900000000 H
  qm_embedding_region 2
  atom 2.3121761799999998 0.1282506800000000 -1.5253240600000000 H
  qm_embedding_region 2
  atom 1.4466861900000001 3.0613207099999999 -1.5613449699999999 H
  qm_embedding_region 2
  atom 3.9865296300000002 2.7100102200000000 -1.4701236600000001 H
  qm_embedding_region 2
  atom 2.4765357799999999 1.1766163599999999 -1.8024690500000000 C
  qm_embedding_region 2
  atom -4.9447976200000001 -6.3895239899999998 2.8815860899999999 C
  qm_embedding_region 2
  atom -4.6845105499999997 -7.8507389900000000 2.5391040399999998 C
  qm_embedding_region 2
  atom -4.5689247899999996 -5.4397207300000003 1.7433153400000001 C
  qm_embedding_region 2
  atom -4.9300196999999999 -8.4848734300000004 3.3940723899999998 H
  qm_embedding_region 2
  atom -3.6319166200000002 -8.0147405999999997 2.2870404899999999 H
  qm_embedding_region 2
  atom -5.2952672999999999 -8.1754948600000006 1.6906695100000000 H
  qm_embedding_region 2
  atom 3.9336812200000000 1.4580785800000000 -0.2149087700000000 H
  qm_embedding_region 2
  atom 4.6323818100000000 1.0961506700000001 -1.7978918399999999 H
  qm_embedding_region 2
  atom 1.3187269900000000 2.0124294599999999 -1.2577309100000000 C
  qm_embedding_region 2
  atom 3.8337410300000001 1.6413205000000000 -1.2896981199999999 C
  qm_embedding_region 2
  atom -5.1672109199999996 -5.6798084500000003 0.8526411400000000 H
  qm_embedding_region 2
  atom -3.5150274399999999 -5.5961320199999998 1.4721294500000000 H
  qm_embedding_region 2
  atom -6.0040426199999999 -6.2421081999999997 3.1224893699999998 H
  qm_embedding_region 2
  atom -4.3709652500000002 -6.1047659400000001 3.7718493500000001 H
  qm_embedding_region 2
  
  -----------------------------------------------------------------------
  Completed first pass over input file geometry.in .
  -----------------------------------------------------------------------
  

  Basic array size parameters:
  | Number of species                 :        3
  | Number of atoms                   :       36
  | Max. basis fn. angular momentum   :        3
  | Max. atomic/ionic basis occupied n:        2
  | Max. number of basis fn. types    :        2
  | Max. radial fns per species/type  :       10
  | Max. logarithmic grid size        :     1301
  | Max. radial integration grid size :       73
  | Max. angular integration grid size:      770
  | Max. angular grid division number :        8
  | Radial grid for Hartree potential :     1301
  | Number of spin channels           :        1

  Definition of standardized fundamental physical constants in this FHI-aims run:
  | Using the set of values used in FHI-aims up to 2024, which combines values from
  | different CODATA sets - see constants.f90.
  | Use the 'codata' keyword in control.in to change this selection.

  Memory overcommitment is allowed on your operating system.

------------------------------------------------------------
          Reading file control.in.
------------------------------------------------------------
  XC: Using PBE gradient-corrected functionals.
  Requested output level: full
  Scalar relativistic treatment of kinetic energy: on-site free-atom approximation to ZORA.
  Occupation type: Gaussian broadening, width =   0.100000E-01 eV.
  Using pulay charge density mixing.
  Pulay mixing - number of memorized iterations:   10
  Kohn-Sham electronic structure solved by the ELSI library.
  The 'LVL' version of RI (resolution of identity) technique is used.
  ** This is a localized expansion of all basis function products.
     Its intended use are Hartree-Fock and hybrid functionals.
     For RPA, MP2, GW, etc., LVL is not yet as accurate. In those cases, check carefully.
  Atomic Solver XC: Using user-defined functional for generating the minimal NAO basis functions.
  Note that only the following functionals are available: kli, pz-lda, pw-lda, vwn, vwn-gauss, pw91_gga, pbe, rpbe, revpbe, pbeint, blyp.
  Threshold for basis singularities:  0.1000E-04
  override_illconditioning: Explicitly overriding any built-in checks for an ill-conditioned overlap matrix.
** WARNING:
  ***  If you use this flag, you should really know what you are doing.
** END OF WARNING
** WARNING:
  *** DO NOT keep this flag set by default in all your control.in files.
** END OF WARNING
  Old 1D distribution for correlation code.
  Charge =  -0.000000E+00: Neutral system requested explicitly.

  Reading configuration options for species C                   .
  | Found nuclear charge :   6.0000
  | Found atomic mass :    12.010700000000000      amu
  | Found l_max for Hartree potential  :   6
  | Found cutoff potl. onset [A], width [A], scale factor :    4.00000    2.00000    1.00000
  | Threshold for basis-dependent cutoff potential is   0.000000E+00
  | Found data for basic radial integration grid :    34 points, outermost radius =    7.000 A
  | Found multiplier for basic radial grid :   2
  | Found angular grid specification: user-specified.
  | Specified grid contains     7 separate shells.
  | Check grid settings after all constraints further below.
  | Found free-atom valence shell :  2 s   2.000
  | Found free-atom valence shell :  2 p   2.000
  | No ionic wave fns used. Skipping ion_occ.
  | No ionic wave fns used. Skipping ion_occ.
  | Found basis singularity cutoff : 0.1000E-03
  | Found hydrogenic basis function :  1 s   1.807
  | Found hydrogenic basis function :  1 s   3.260
  | Found hydrogenic basis function :  2 p   1.974
  | Found hydrogenic basis function :  2 p   3.166
  | Found hydrogenic basis function :  3 d   5.891
  | Found hydrogenic basis function :  3 d   6.677
  | Found hydrogenic basis function :  4 f  10.150
  | Found hydrogenic basis function :  1 s   6.773
  | Found hydrogenic basis function :  1 s  13.859
  | Found hydrogenic basis function :  2 p   3.647
 | Encountered keyword species, ending the description of species C                   .
  Species C                   : Missing cutoff potential type.
  Defaulting to exp(1/x)/(1-x)^2 type cutoff potential.
  Species C : No 'logarithmic' tag. Using default grid for free atom:
  | Default logarithmic grid data [bohr] : 0.1000E-03 0.1000E+03 0.1012E+01
  Species C                   : Using default innermost maximum threshold i_radial=  2 for radial functions.
  Species C                   : Default cutoff onset for free atom density etc. : 0.40000000E+01 AA.
  Species C                   : Basic radial grid will be enhanced according to radial_multiplier =   2, to contain    69 grid points.

  Reading configuration options for species O                   .
  | Found nuclear charge :   8.0000
  | Found atomic mass :    15.999400000000000      amu
  | Found l_max for Hartree potential  :   6
  | Found cutoff potl. onset [A], width [A], scale factor :    4.00000    2.00000    1.00000
  | Threshold for basis-dependent cutoff potential is   0.000000E+00
  | Found data for basic radial integration grid :    36 points, outermost radius =    7.000 A
  | Found multiplier for basic radial grid :   2
  | Found angular grid specification: user-specified.
  | Specified grid contains     7 separate shells.
  | Check grid settings after all constraints further below.
  | Found free-atom valence shell :  2 s   2.000
  | Found free-atom valence shell :  2 p   4.000
  | No ionic wave fns used. Skipping ion_occ.
  | No ionic wave fns used. Skipping ion_occ.
  | Found basis singularity cutoff : 0.1000E-03
  | Found hydrogenic basis function :  1 s   1.849
  | Found hydrogenic basis function :  1 s   3.096
  | Found hydrogenic basis function :  2 p   2.449
  | Found hydrogenic basis function :  2 p   5.857
  | Found hydrogenic basis function :  3 d   8.537
  | Found hydrogenic basis function :  3 d   8.963
  | Found hydrogenic basis function :  4 f  14.096
  | Found hydrogenic basis function :  1 s   3.622
  | Found hydrogenic basis function :  1 s   5.973
  | Found hydrogenic basis function :  2 p   6.294
 | Encountered keyword species, ending the description of species O                   .
  Species O                   : Missing cutoff potential type.
  Defaulting to exp(1/x)/(1-x)^2 type cutoff potential.
  Species O : No 'logarithmic' tag. Using default grid for free atom:
  | Default logarithmic grid data [bohr] : 0.1000E-03 0.1000E+03 0.1012E+01
  Species O                   : Using default innermost maximum threshold i_radial=  2 for radial functions.
  Species O                   : Default cutoff onset for free atom density etc. : 0.40000000E+01 AA.
  Species O                   : Basic radial grid will be enhanced according to radial_multiplier =   2, to contain    73 grid points.

  Reading configuration options for species H                   .
  | Found nuclear charge :   1.0000
  | Found atomic mass :    1.0079400000000001      amu
  | Found l_max for Hartree potential  :   6
  | Found cutoff potl. onset [A], width [A], scale factor :    4.00000    2.00000    1.00000
  | Threshold for basis-dependent cutoff potential is   0.000000E+00
  | Found data for basic radial integration grid :    24 points, outermost radius =    7.000 A
  | Found multiplier for basic radial grid :   2
  | Found angular grid specification: user-specified.
  | Specified grid contains     7 separate shells.
  | Check grid settings after all constraints further below.
  | Found free-atom valence shell :  1 s   1.000
  | No ionic wave fns used. Skipping ion_occ.
  | Found basis singularity cutoff : 0.1000E-03
  | Found hydrogenic basis function :  1 s   1.220
  | Found hydrogenic basis function :  1 s   1.790
  | Found hydrogenic basis function :  2 p   3.439
  | Found hydrogenic basis function :  2 p   3.487
  | Found hydrogenic basis function :  3 d   6.208
  | Found hydrogenic basis function :  1 s   2.628
  Species H                   : Missing cutoff potential type.
  Defaulting to exp(1/x)/(1-x)^2 type cutoff potential.
  Species H : No 'logarithmic' tag. Using default grid for free atom:
  | Default logarithmic grid data [bohr] : 0.1000E-03 0.1000E+03 0.1012E+01
  Species H                   : Using default innermost maximum threshold i_radial=  2 for radial functions.
  Species H                   : Default cutoff onset for free atom density etc. : 0.40000000E+01 AA.
  Species H                   : Basic radial grid will be enhanced according to radial_multiplier =   2, to contain    49 grid points.

  Finished reading input file 'control.in'.

------------------------------------------------------------


------------------------------------------------------------
          Reading geometry description geometry.in.
------------------------------------------------------------
  | The smallest distance between any two atoms is         0.96924844 AA.
  | The first atom of this pair is atom number                      3 .
  | The second atom of this pair is atom number                     7 .
  Input structure read successfully.
  The structure contains       36 atoms,  and a total of        100.000 electrons.

  Input geometry:
  | No unit cell requested.
  | Atomic structure:
  |       Atom                x [A]            y [A]            z [A]
  |    1: Species C            -0.03779431        1.51637277       -1.73892747
  |    2: Species C            -1.19568528        2.36166297       -1.22187499
  |    3: Species O            -2.41829726        1.76459822       -1.65106768
  |    4: Species H            -0.16484391        0.47270461       -1.41336267
  |    5: Species H            -1.11572507        3.38283394       -1.62368032
  |    6: Species H            -0.05011431        1.51194255       -2.83940321
  |    7: Species H            -3.14333102        2.38001203       -1.46389282
  |    8: Species H            -1.16196506        2.40041161       -0.12189739
  |    9: Species C            -4.77387262       -3.97326221        2.09371874
  |   10: Species C            -4.27348600       -3.02754564        0.99674037
  |   11: Species H            -4.25359425       -3.75211385        3.03733129
  |   12: Species O            -4.35951346       -1.70490523        1.44321628
  |   13: Species H            -3.99241594       -1.10905252        0.74984363
  |   14: Species H            -4.89287517       -3.17327096        0.09511773
  |   15: Species H            -3.22971884       -3.28889033        0.74964815
  |   16: Species H            -5.84616419       -3.78930407        2.25931676
  |   17: Species H             1.32890591        1.99398648       -0.15858042
  |   18: Species H             2.45190620        1.22434932       -2.89815449
  |   19: Species H             2.31217618        0.12825068       -1.52532406
  |   20: Species H             1.44668619        3.06132071       -1.56134497
  |   21: Species H             3.98652963        2.71001022       -1.47012366
  |   22: Species C             2.47653578        1.17661636       -1.80246905
  |   23: Species C            -4.94479762       -6.38952399        2.88158609
  |   24: Species C            -4.68451055       -7.85073899        2.53910404
  |   25: Species C            -4.56892479       -5.43972073        1.74331534
  |   26: Species H            -4.93001970       -8.48487343        3.39407239
  |   27: Species H            -3.63191662       -8.01474060        2.28704049
  |   28: Species H            -5.29526730       -8.17549486        1.69066951
  |   29: Species H             3.93368122        1.45807858       -0.21490877
  |   30: Species H             4.63238181        1.09615067       -1.79789184
  |   31: Species C             1.31872699        2.01242946       -1.25773091
  |   32: Species C             3.83374103        1.64132050       -1.28969812
  |   33: Species H            -5.16721092       -5.67980845        0.85264114
  |   34: Species H            -3.51502744       -5.59613202        1.47212945
  |   35: Species H            -6.00404262       -6.24210820        3.12248937
  |   36: Species H            -4.37096525       -6.10476594        3.77184935

  Slab Identifier: This is not a periodic structure.

  Finished reading input file 'geometry.in'.



  Consistency checks for stacksize environment parameter are next.

  | Maximum stacksize for task 0: unlimited
  | Maximum stacksize for task 1: unlimited
  | Maximum stacksize for task 2: unlimited
  | Maximum stacksize for task 3: unlimited
  | Maximum stacksize for task 4: unlimited
  | Maximum stacksize for task 5: unlimited
  | Maximum stacksize for task 6: unlimited
  | Maximum stacksize for task 7: unlimited
  | Maximum stacksize for task 8: unlimited
  | Maximum stacksize for task 9: unlimited
  | Maximum stacksize for task 10: unlimited
  | Maximum stacksize for task 11: unlimited
  | Maximum stacksize for task 12: unlimited
  | Maximum stacksize for task 13: unlimited
  | Maximum stacksize for task 14: unlimited
  | Maximum stacksize for task 15: unlimited
  | Maximum stacksize for task 16: unlimited
  | Maximum stacksize for task 17: unlimited
  | Maximum stacksize for task 18: unlimited
  | Maximum stacksize for task 19: unlimited
  | Maximum stacksize for task 20: unlimited
  | Maximum stacksize for task 21: unlimited
  | Maximum stacksize for task 22: unlimited
  | Maximum stacksize for task 23: unlimited
  | Maximum stacksize for task 24: unlimited
  | Maximum stacksize for task 25: unlimited
  | Maximum stacksize for task 26: unlimited
  | Maximum stacksize for task 27: unlimited
  | Maximum stacksize for task 28: unlimited
  | Maximum stacksize for task 29: unlimited
  | Maximum stacksize for task 30: unlimited
  | Maximum stacksize for task 31: unlimited
  | Maximum stacksize for task 32: unlimited
  | Maximum stacksize for task 33: unlimited
  | Maximum stacksize for task 34: unlimited
  | Maximum stacksize for task 35: unlimited
  | Maximum stacksize for task 36: unlimited
  | Maximum stacksize for task 37: unlimited
  | Maximum stacksize for task 38: unlimited
  | Maximum stacksize for task 39: unlimited
  | Maximum stacksize for task 40: unlimited
  | Maximum stacksize for task 41: unlimited
  | Maximum stacksize for task 42: unlimited
  | Maximum stacksize for task 43: unlimited
  | Maximum stacksize for task 44: unlimited
  | Maximum stacksize for task 45: unlimited
  | Maximum stacksize for task 46: unlimited
  | Maximum stacksize for task 47: unlimited
  | Maximum stacksize for task 48: unlimited
  | Maximum stacksize for task 49: unlimited
  | Maximum stacksize for task 50: unlimited
  | Maximum stacksize for task 51: unlimited
  | Maximum stacksize for task 52: unlimited
  | Maximum stacksize for task 53: unlimited
  | Maximum stacksize for task 54: unlimited
  | Maximum stacksize for task 55: unlimited
  | Maximum stacksize for task 56: unlimited
  | Maximum stacksize for task 57: unlimited
  | Maximum stacksize for task 58: unlimited
  | Maximum stacksize for task 59: unlimited
  | Maximum stacksize for task 60: unlimited
  | Maximum stacksize for task 61: unlimited
  | Maximum stacksize for task 62: unlimited
  | Maximum stacksize for task 63: unlimited
  | Maximum stacksize for task 64: unlimited
  | Maximum stacksize for task 65: unlimited
  | Maximum stacksize for task 66: unlimited
  | Maximum stacksize for task 67: unlimited
  | Maximum stacksize for task 68: unlimited
  | Maximum stacksize for task 69: unlimited
  | Maximum stacksize for task 70: unlimited
  | Maximum stacksize for task 71: unlimited
  | Maximum stacksize for task 72: unlimited
  | Maximum stacksize for task 73: unlimited
  | Maximum stacksize for task 74: unlimited
  | Maximum stacksize for task 75: unlimited
  | Maximum stacksize for task 76: unlimited
  | Maximum stacksize for task 77: unlimited
  | Maximum stacksize for task 78: unlimited
  | Maximum stacksize for task 79: unlimited
  | Maximum stacksize for task 80: unlimited
  | Maximum stacksize for task 81: unlimited
  | Maximum stacksize for task 82: unlimited
  | Maximum stacksize for task 83: unlimited
  | Maximum stacksize for task 84: unlimited
  | Maximum stacksize for task 85: unlimited
  | Maximum stacksize for task 86: unlimited
  | Maximum stacksize for task 87: unlimited
  | Maximum stacksize for task 88: unlimited
  | Maximum stacksize for task 89: unlimited
  | Maximum stacksize for task 90: unlimited
  | Maximum stacksize for task 91: unlimited
  | Maximum stacksize for task 92: unlimited
  | Maximum stacksize for task 93: unlimited
  | Maximum stacksize for task 94: unlimited
  | Maximum stacksize for task 95: unlimited
  | Maximum stacksize for task 96: unlimited
  | Maximum stacksize for task 97: unlimited
  | Maximum stacksize for task 98: unlimited
  | Maximum stacksize for task 99: unlimited
  | Maximum stacksize for task 100: unlimited
  | Maximum stacksize for task 101: unlimited
  | Maximum stacksize for task 102: unlimited
  | Maximum stacksize for task 103: unlimited
  | Maximum stacksize for task 104: unlimited
  | Maximum stacksize for task 105: unlimited
  | Maximum stacksize for task 106: unlimited
  | Maximum stacksize for task 107: unlimited
  | Maximum stacksize for task 108: unlimited
  | Maximum stacksize for task 109: unlimited
  | Maximum stacksize for task 110: unlimited
  | Maximum stacksize for task 111: unlimited
  | Maximum stacksize for task 112: unlimited
  | Maximum stacksize for task 113: unlimited
  | Maximum stacksize for task 114: unlimited
  | Maximum stacksize for task 115: unlimited
  | Maximum stacksize for task 116: unlimited
  | Maximum stacksize for task 117: unlimited
  | Maximum stacksize for task 118: unlimited
  | Maximum stacksize for task 119: unlimited
  | Maximum stacksize for task 120: unlimited
  | Maximum stacksize for task 121: unlimited
  | Maximum stacksize for task 122: unlimited
  | Maximum stacksize for task 123: unlimited
  | Maximum stacksize for task 124: unlimited
  | Maximum stacksize for task 125: unlimited
  | Maximum stacksize for task 126: unlimited
  | Maximum stacksize for task 127: unlimited
  | Current stacksize for task 0: unlimited
  | Current stacksize for task 1: unlimited
  | Current stacksize for task 2: unlimited
  | Current stacksize for task 3: unlimited
  | Current stacksize for task 4: unlimited
  | Current stacksize for task 5: unlimited
  | Current stacksize for task 6: unlimited
  | Current stacksize for task 7: unlimited
  | Current stacksize for task 8: unlimited
  | Current stacksize for task 9: unlimited
  | Current stacksize for task 10: unlimited
  | Current stacksize for task 11: unlimited
  | Current stacksize for task 12: unlimited
  | Current stacksize for task 13: unlimited
  | Current stacksize for task 14: unlimited
  | Current stacksize for task 15: unlimited
  | Current stacksize for task 16: unlimited
  | Current stacksize for task 17: unlimited
  | Current stacksize for task 18: unlimited
  | Current stacksize for task 19: unlimited
  | Current stacksize for task 20: unlimited
  | Current stacksize for task 21: unlimited
  | Current stacksize for task 22: unlimited
  | Current stacksize for task 23: unlimited
  | Current stacksize for task 24: unlimited
  | Current stacksize for task 25: unlimited
  | Current stacksize for task 26: unlimited
  | Current stacksize for task 27: unlimited
  | Current stacksize for task 28: unlimited
  | Current stacksize for task 29: unlimited
  | Current stacksize for task 30: unlimited
  | Current stacksize for task 31: unlimited
  | Current stacksize for task 32: unlimited
  | Current stacksize for task 33: unlimited
  | Current stacksize for task 34: unlimited
  | Current stacksize for task 35: unlimited
  | Current stacksize for task 36: unlimited
  | Current stacksize for task 37: unlimited
  | Current stacksize for task 38: unlimited
  | Current stacksize for task 39: unlimited
  | Current stacksize for task 40: unlimited
  | Current stacksize for task 41: unlimited
  | Current stacksize for task 42: unlimited
  | Current stacksize for task 43: unlimited
  | Current stacksize for task 44: unlimited
  | Current stacksize for task 45: unlimited
  | Current stacksize for task 46: unlimited
  | Current stacksize for task 47: unlimited
  | Current stacksize for task 48: unlimited
  | Current stacksize for task 49: unlimited
  | Current stacksize for task 50: unlimited
  | Current stacksize for task 51: unlimited
  | Current stacksize for task 52: unlimited
  | Current stacksize for task 53: unlimited
  | Current stacksize for task 54: unlimited
  | Current stacksize for task 55: unlimited
  | Current stacksize for task 56: unlimited
  | Current stacksize for task 57: unlimited
  | Current stacksize for task 58: unlimited
  | Current stacksize for task 59: unlimited
  | Current stacksize for task 60: unlimited
  | Current stacksize for task 61: unlimited
  | Current stacksize for task 62: unlimited
  | Current stacksize for task 63: unlimited
  | Current stacksize for task 64: unlimited
  | Current stacksize for task 65: unlimited
  | Current stacksize for task 66: unlimited
  | Current stacksize for task 67: unlimited
  | Current stacksize for task 68: unlimited
  | Current stacksize for task 69: unlimited
  | Current stacksize for task 70: unlimited
  | Current stacksize for task 71: unlimited
  | Current stacksize for task 72: unlimited
  | Current stacksize for task 73: unlimited
  | Current stacksize for task 74: unlimited
  | Current stacksize for task 75: unlimited
  | Current stacksize for task 76: unlimited
  | Current stacksize for task 77: unlimited
  | Current stacksize for task 78: unlimited
  | Current stacksize for task 79: unlimited
  | Current stacksize for task 80: unlimited
  | Current stacksize for task 81: unlimited
  | Current stacksize for task 82: unlimited
  | Current stacksize for task 83: unlimited
  | Current stacksize for task 84: unlimited
  | Current stacksize for task 85: unlimited
  | Current stacksize for task 86: unlimited
  | Current stacksize for task 87: unlimited
  | Current stacksize for task 88: unlimited
  | Current stacksize for task 89: unlimited
  | Current stacksize for task 90: unlimited
  | Current stacksize for task 91: unlimited
  | Current stacksize for task 92: unlimited
  | Current stacksize for task 93: unlimited
  | Current stacksize for task 94: unlimited
  | Current stacksize for task 95: unlimited
  | Current stacksize for task 96: unlimited
  | Current stacksize for task 97: unlimited
  | Current stacksize for task 98: unlimited
  | Current stacksize for task 99: unlimited
  | Current stacksize for task 100: unlimited
  | Current stacksize for task 101: unlimited
  | Current stacksize for task 102: unlimited
  | Current stacksize for task 103: unlimited
  | Current stacksize for task 104: unlimited
  | Current stacksize for task 105: unlimited
  | Current stacksize for task 106: unlimited
  | Current stacksize for task 107: unlimited
  | Current stacksize for task 108: unlimited
  | Current stacksize for task 109: unlimited
  | Current stacksize for task 110: unlimited
  | Current stacksize for task 111: unlimited
  | Current stacksize for task 112: unlimited
  | Current stacksize for task 113: unlimited
  | Current stacksize for task 114: unlimited
  | Current stacksize for task 115: unlimited
  | Current stacksize for task 116: unlimited
  | Current stacksize for task 117: unlimited
  | Current stacksize for task 118: unlimited
  | Current stacksize for task 119: unlimited
  | Current stacksize for task 120: unlimited
  | Current stacksize for task 121: unlimited
  | Current stacksize for task 122: unlimited
  | Current stacksize for task 123: unlimited
  | Current stacksize for task 124: unlimited
  | Current stacksize for task 125: unlimited
  | Current stacksize for task 126: unlimited
  | Current stacksize for task 127: unlimited

  Consistency checks for the contents of control.in are next.

  MPI_IN_PLACE appears to work with this MPI implementation.
  | Keeping use_mpi_in_place .true. (see manual).
  Target number of points in a grid batch is not set. Defaulting to  100
  Method for grid partitioning is not set. Defaulting to parallel hash+maxmin partitioning.
  Batch size limit is not set. Defaulting to    200
  By default, will store active basis functions for each batch.
  If in need of memory, prune_basis_once .false. can be used to disable this option.
  communication_type for Hartree potential was not specified.
  Defaulting to calc_hartree .
  Pulay mixer: Number of initial linear mixing iterations not set.
  Defaulting to    0 iterations.
  Work space size for distributed Hartree potential not set.
  Defaulting to   0.200000E+03 MB.
  Mixing parameter for charge density mixing has not been set.
  Using default: charge_mix_param =     0.0500.
  The mixing parameter will be adjusted in iteration number     2 of each s.c.f. cycle (i.e., each geometry step).
  Algorithm-dependent basis array size parameters:
  | n_max_pulay                         :       10
  Maximum number of self-consistency iterations not provided.
  Presetting  1000 iterations.
  Presetting      1001 iterations before the initial mixing cycle
  is restarted anyway using the sc_init_iter criterion / keyword.
  Presetting a factor      1.000 between actual scf density residual
  and density convergence criterion sc_accuracy_rho below which sc_init_iter
  takes no effect.
 * No s.c.f. convergence criteria (sc_accuracy_*) were provided in control.in.
 * The run will proceed with a reasonable default guess, but please check whether.
 * the s.c.f. cycles seem to take too much or too little time.
  Calculation of forces was not defined in control.in. No forces will be calculated.
  Geometry relaxation not requested: no relaxation will be performed.
 * Notice: The s.c.f. convergence criterion sc_accuracy_rho was not provided.
 * We used to stop in this case, and ask the user to provide reasonable
 * scf convergence criteria. However, this led some users to employ criteria
 * that led to extremely long run times, e.g., for simple relaxation.
 * We now preset a default value for sc_accuracy_rho if it is not set.
 * You may still wish to check if this setting is too tight or too loose for your needs.
 * Based on n_atoms and forces and force-correction status, FHI-aims chose sc_accuracy_rho =  0.195959E-04 .
  No accuracy limit for integral partition fn. given. Defaulting to  0.1000E-14.
  No threshold value for u(r) in integrations given. Defaulting to  0.1000E-05.
  No accuracy for occupation numbers given. Defaulting to  0.1000E-12.
  No threshold value for occupation numbers given. Defaulting to  0.0000E+00.
  No accuracy for fermi level given. Defaulting to  0.1000E-19.
  Maximum # of iterations to find E_F not set. Defaulting to  200.
  Will not use alltoall communication since running on < 1024 CPUs.
  partition_type (choice of integration weights) for integrals was not specified.
  | Using a version of the partition function of Stratmann and coworkers ('stratmann_sparse').
  | At each grid point, the set of atoms used to build the partition table is smoothly restricted to
  | only those atoms whose free-atom density would be non-zero at that grid point.
  Partitioning for Hartree potential was not defined. Using partition_type for integrals.
  | Adjusted default value of keyword multip_moments_threshold to:       0.10000000E-11
  | This value may affect high angular momentum components of the Hartree potential in periodic systems.
  Spin handling was not defined in control.in. Defaulting to unpolarized case.
  No q(lm)/r^(l+1) cutoff set for long-range Hartree potential.
  | Using default value of  0.100000E-09 .
  | Verify using the multipole_threshold keyword.
  Defaulting to new monopole extrapolation.
  Density update method: density matrix based density update selected.
  Scalapack and density-matrix based density update required:
  Switching to packed matrix format "index" by default.
  Charge integration errors on the 3D integration grid will be compensated
  by explicit normalization and distribution of residual charges.
  Use the "compensate_multipole_errors" flag to change this behaviour.
  Found no potential conflicts with setting 'use_local_index' for this calculation.
  Flag 'use_local_index' has not been set.
  Testing whether we classify this calculation as large-scale ...
  The calculation contains less than 100 atoms. This is most likely not a large-scale calculation.
  Not setting 'use_local_index'.

  Consistency checks for the contents of geometry.in are next.

  Number of empty states per atom not set in control.in - providing a guess from actual geometry.
  | Total number of empty states used during s.c.f. cycle:       72
  If you use a very high smearing, use empty_states (per atom!) in control.in to increase this value.

  Structure-dependent array size parameters: 
  | Maximum number of distinct radial functions  :       33
  | Maximum number of basis functions            :      780
  | Number of Kohn-Sham states (occupied + empty):      122
------------------------------------------------------------
  After read_input_data [GB]:    231.82

  Performing system and environment tests:
  | Environment variable OMP_NUM_THREADS correctly set to 1.
  | Checking for ScaLAPACK...
  | Testing pdtran()...
  | All pdtran() tests passed.
  After prepare_system [GB]:    231.69

------------------------------------------------------------
          Preparing all fixed parts of the calculation.
------------------------------------------------------------
  Determining machine precision:
     2.2250738585072014E-308
  Setting up grids for atomic and cluster calculations.

  Creating wave function, potential, and density for free atoms.
  Runtime choices for atomic solver:
  | atomic solver xc        : PBE
  | compute density gradient: 1
  | compute kinetic density : F

  Species: C

  List of occupied orbitals and eigenvalues:
    n    l              occ      energy [Ha]    energy [eV]
    1    0           2.0000       -10.049212      -273.4530
    2    0           2.0000        -0.504761       -13.7352
    2    1           2.0000        -0.193631        -5.2690


  Species: O

  List of occupied orbitals and eigenvalues:
    n    l              occ      energy [Ha]    energy [eV]
    1    0           2.0000       -18.927378      -515.0401
    2    0           2.0000        -0.880539       -23.9607
    2    1           4.0000        -0.331811        -9.0290


  Species: H

  List of occupied orbitals and eigenvalues:
    n    l              occ      energy [Ha]    energy [eV]
    1    0           1.0000        -0.238386        -6.4868


  Adding cutoff potential to free-atom effective potential.
  Creating fixed part of basis set: Ionic, confined, hydrogenic.

  C                    hydrogenic:

  List of hydrogenic basis orbitals: 
    n    l      effective z      eigenvalue [eV]  inner max. [A]     outer max. [A]     outer radius [A]   
    1    0         1.806901       -44.4211           0.294391           0.294391           4.780049
    1    0         3.259668      -144.5664           0.161723           0.161723           2.895699
    2    1         1.974043       -13.2515           1.075734           1.075734           5.401630
    2    1         3.166168       -34.0980           0.667797           0.667797           5.207114
    3    2         5.890639       -52.4569           0.812068           0.812068           5.081344
    3    2         6.677161       -67.4003           0.709889           0.709889           4.958612
    4    3        10.149675       -87.6002           0.832167           0.832167           4.898362
    1    0         6.773070      -624.1540           0.077664           0.077664           1.425008
    1    0        13.859134     -2613.3215           0.038219           0.038219           0.709889
    2    1         3.647461       -45.2524           0.583771           0.583771           5.019603


  O                    hydrogenic:

  List of hydrogenic basis orbitals: 
    n    l      effective z      eigenvalue [eV]  inner max. [A]     outer max. [A]     outer radius [A]   
    1    0         1.848771       -46.5036           0.285417           0.285417           4.749044
    1    0         3.095778      -130.3948           0.170802           0.170802           3.058254
    2    1         2.448957       -20.3995           0.868203           0.868203           5.301386
    2    1         5.857226      -116.6929           0.360044           0.360044           3.673771
    3    2         8.537017      -110.1769           0.559099           0.559099           4.202559
    3    2         8.962760      -121.4400           0.532417           0.532417           4.051222
    4    3        14.096196      -168.9680           0.601650           0.601650           3.764702
    1    0         3.621656      -178.4576           0.145704           0.145704           2.608875
    1    0         5.972725      -485.3619           0.088266           0.088266           1.619544
    2    1         6.294042      -134.7472           0.334580           0.334580           3.455938


  H                    hydrogenic:

  List of hydrogenic basis orbitals: 
    n    l      effective z      eigenvalue [eV]  inner max. [A]     outer max. [A]     outer radius [A]   
    1    0         1.219572       -20.2365           0.433025           0.433025           5.243229
    1    0         1.790153       -43.6015           0.296433           0.296433           4.813203
    2    1         3.438629       -40.2190           0.617279           0.617279           5.116587
    2    1         3.486847       -41.3549           0.609778           0.609778           5.116587
    3    2         6.208287       -58.2669           0.769215           0.769215           5.054418
    1    0         2.627683       -93.9435           0.200461           0.200461           3.589321

  Creating atomic-like basis functions for current effective potential.

  Species C                   :

  List of atomic basis orbitals and eigenvalues:
    n    l      energy [Ha]    energy [eV]    outer radius [A]
    1    0       -10.049212      -273.4530       1.934409
    2    0        -0.504761       -13.7352       5.271162
    2    1        -0.193631        -5.2690       5.401630


  Species O                   :

  List of atomic basis orbitals and eigenvalues:
    n    l      energy [Ha]    energy [eV]    outer radius [A]
    1    0       -18.927378      -515.0401       1.415765
    2    0        -0.880539       -23.9607       5.048385
    2    1        -0.331811        -9.0290       5.301386


  Species H                   :

  List of atomic basis orbitals and eigenvalues:
    n    l      energy [Ha]    energy [eV]    outer radius [A]
    1    0        -0.238386        -6.4868       5.373006

  Assembling full basis from fixed parts.
  | Species C :   atomic orbital   1 s accepted.
  | Species C :   atomic orbital   2 s accepted.
  | Species C :    hydro orbital   1 s accepted.
  | Species C :    hydro orbital   1 s accepted.
  | Species C :    hydro orbital   1 s accepted.
  | Species C :    hydro orbital   1 s accepted.
  | Species C :   atomic orbital   2 p accepted.
  | Species C :    hydro orbital   2 p accepted.
  | Species C :    hydro orbital   2 p accepted.
  | Species C :    hydro orbital   2 p accepted.
  | Species C :    hydro orbital   3 d accepted.
  | Species C :    hydro orbital   3 d accepted.
  | Species C :    hydro orbital   4 f accepted.
  | Species O :   atomic orbital   1 s accepted.
  | Species O :   atomic orbital   2 s accepted.
  | Species O :    hydro orbital   1 s accepted.
  | Species O :    hydro orbital   1 s accepted.
  | Species O :    hydro orbital   1 s accepted.
  | Species O :    hydro orbital   1 s accepted.
  | Species O :   atomic orbital   2 p accepted.
  | Species O :    hydro orbital   2 p accepted.
  | Species O :    hydro orbital   2 p accepted.
  | Species O :    hydro orbital   2 p accepted.
  | Species O :    hydro orbital   3 d accepted.
  | Species O :    hydro orbital   3 d accepted.
  | Species O :    hydro orbital   4 f accepted.
  | Species H :   atomic orbital   1 s accepted.
  | Species H :    hydro orbital   1 s accepted.
  | Species H :    hydro orbital   1 s accepted.
  | Species H :    hydro orbital   1 s accepted.
  | Species H :    hydro orbital   2 p accepted.
  | Species H :    hydro orbital   2 p accepted.
  | Species H :    hydro orbital   3 d accepted.

  Basis size parameters after reduction:
  | Total number of radial functions:       33
  | Total number of basis functions :      780

  Per-task memory consumption for arrays in subroutine allocate_ext:
  |          11.013528MB.
  Testing on-site integration grid accuracy.
  |  Species  Function  <phi|h_atom|phi> (log., in eV)  <phi|h_atom|phi> (rad., in eV)
           1        1               -273.4529725981               -273.4529710451
           1        2                -13.7352530191                -13.7352524550
           1        3                 86.2023959499                 86.2029767647
           1        4                260.2909073737                260.2918994838
           1        5                563.5510062075                563.5857012050 ***
           1        6               4529.1613221568               4529.2331546281 ***
           1        7                 -5.2694407727                 -5.2694065285
           1        8                 12.8835084872                 12.8835821661
           1        9                 52.7701778290                 52.7713139734
           1       10                180.8047974108                180.8047860803
           1       11                 26.4065695601                 26.4065695149
           1       12                 63.3949305197                 63.3949301312
           1       13                 63.7095627995                 63.7095627983
           2       14               -515.0401491148               -515.0401445497
           2       15                -23.9606901999                -23.9606901323
           2       16                206.0187779700                206.0211765023
           2       17                158.2680046985                158.2701180152
           2       18                561.6007594243                561.6062533605
           2       19               1656.0587631500               1656.0425294084
           2       20                 -9.0290718243                 -9.0290720379
           2       21                 18.3295167950                 18.3295142218
           2       22                208.6408259714                208.6408479852
           2       23                167.4902732150                167.4902742661
           2       24                 57.8199386798                 57.8199387405
           2       25                119.1758445227                119.1758446893
           2       26                125.2521680551                125.2521680660
           3       27                 -6.4870767962                 -6.4871688290
           3       28                  9.6181532369                  9.6169105299
           3       29                 63.1486086958                 63.1461585604
           3       30                200.3171618282                200.3149665030
           3       31                 24.1870988321                 24.1870987988
           3       32                 56.8339599798                 56.8339562921
           3       33                 46.6431498561                 46.6431498370
 * Note: Onsite integrals marked "***" above are less accurate than
 * onsite_accuracy_threshold =    0.03000 eV. Usually, this is harmless.
 * When in doubt, tighten the "radial" and/or "radial_multiplier" flags to check.

  Task       0:*** pseudo_inverse, for evaluate_coeff_d: error of  2.97E-13; eps:  1.00E-15
  Preparing densities etc. for the partition functions (integrals / Hartree potential).

  Preparations completed.
  max(cpu_time)          :      0.321 s.
  Wall clock time (cpu1) :      0.382 s.
------------------------------------------------------------
  After prepare_scf [GB]:    227.58

  Initializing index lists of integration centers etc. from given atomic structure:
  | Number of centers in hartree potential         :        36
  | Number of centers in hartree multipole         :        36
  | Number of centers in electron density summation:        36
  | Number of centers in basis integrals           :        36
  | Number of centers in integrals                 :        36
  | Number of centers in hamiltonian               :        36
  After initialize_bc_dependent_lists [GB]:    227.58

  Initializing index lists of integration centers etc. from given atomic structure:
  | Number of centers in hartree potential         :        36
  | Number of centers in hartree multipole         :        36
  | Number of centers in electron density summation:        36
  | Number of centers in basis integrals           :        36
  | Number of centers in integrals                 :        36
  | Number of centers in hamiltonian               :        36

------------------------------------------------------------
          Begin self-consistency loop: Initialization.

          Date     :  20250714, Time     :  132618.342
------------------------------------------------------------
  Available memory per node after initialize_hartree_non_periodic_ewald [GB]:    227.58
  Available memory per node after initialize_recip_hartree_potential [GB]:    227.58
  * Using 128 tasks for Scalapack Eigenvalue solver.
  Detailed listing of tasks and assigned k-points:
  (for non-periodic systems, the "k-point" denotes an internal label only)
   Task     0 k-point     1 on nid001204
   Task     1 k-point     1 on nid001204
   Task     2 k-point     1 on nid001204
   Task     3 k-point     1 on nid001204
   Task     4 k-point     1 on nid001204
   Task     5 k-point     1 on nid001204
   Task     6 k-point     1 on nid001204
   Task     7 k-point     1 on nid001204
   Task     8 k-point     1 on nid001204
   Task     9 k-point     1 on nid001204
   Task    10 k-point     1 on nid001204
   Task    11 k-point     1 on nid001204
   Task    12 k-point     1 on nid001204
   Task    13 k-point     1 on nid001204
   Task    14 k-point     1 on nid001204
   Task    15 k-point     1 on nid001204
   Task    16 k-point     1 on nid001204
   Task    17 k-point     1 on nid001204
   Task    18 k-point     1 on nid001204
   Task    19 k-point     1 on nid001204
   Task    20 k-point     1 on nid001204
   Task    21 k-point     1 on nid001204
   Task    22 k-point     1 on nid001204
   Task    23 k-point     1 on nid001204
   Task    24 k-point     1 on nid001204
   Task    25 k-point     1 on nid001204
   Task    26 k-point     1 on nid001204
   Task    27 k-point     1 on nid001204
   Task    28 k-point     1 on nid001204
   Task    29 k-point     1 on nid001204
   Task    30 k-point     1 on nid001204
   Task    31 k-point     1 on nid001204
   Task    32 k-point     1 on nid001204
   Task    33 k-point     1 on nid001204
   Task    34 k-point     1 on nid001204
   Task    35 k-point     1 on nid001204
   Task    36 k-point     1 on nid001204
   Task    37 k-point     1 on nid001204
   Task    38 k-point     1 on nid001204
   Task    39 k-point     1 on nid001204
   Task    40 k-point     1 on nid001204
   Task    41 k-point     1 on nid001204
   Task    42 k-point     1 on nid001204
   Task    43 k-point     1 on nid001204
   Task    44 k-point     1 on nid001204
   Task    45 k-point     1 on nid001204
   Task    46 k-point     1 on nid001204
   Task    47 k-point     1 on nid001204
   Task    48 k-point     1 on nid001204
   Task    49 k-point     1 on nid001204
   Task    50 k-point     1 on nid001204
   Task    51 k-point     1 on nid001204
   Task    52 k-point     1 on nid001204
   Task    53 k-point     1 on nid001204
   Task    54 k-point     1 on nid001204
   Task    55 k-point     1 on nid001204
   Task    56 k-point     1 on nid001204
   Task    57 k-point     1 on nid001204
   Task    58 k-point     1 on nid001204
   Task    59 k-point     1 on nid001204
   Task    60 k-point     1 on nid001204
   Task    61 k-point     1 on nid001204
   Task    62 k-point     1 on nid001204
   Task    63 k-point     1 on nid001204
   Task    64 k-point     1 on nid001204
   Task    65 k-point     1 on nid001204
   Task    66 k-point     1 on nid001204
   Task    67 k-point     1 on nid001204
   Task    68 k-point     1 on nid001204
   Task    69 k-point     1 on nid001204
   Task    70 k-point     1 on nid001204
   Task    71 k-point     1 on nid001204
   Task    72 k-point     1 on nid001204
   Task    73 k-point     1 on nid001204
   Task    74 k-point     1 on nid001204
   Task    75 k-point     1 on nid001204
   Task    76 k-point     1 on nid001204
   Task    77 k-point     1 on nid001204
   Task    78 k-point     1 on nid001204
   Task    79 k-point     1 on nid001204
   Task    80 k-point     1 on nid001204
   Task    81 k-point     1 on nid001204
   Task    82 k-point     1 on nid001204
   Task    83 k-point     1 on nid001204
   Task    84 k-point     1 on nid001204
   Task    85 k-point     1 on nid001204
   Task    86 k-point     1 on nid001204
   Task    87 k-point     1 on nid001204
   Task    88 k-point     1 on nid001204
   Task    89 k-point     1 on nid001204
   Task    90 k-point     1 on nid001204
   Task    91 k-point     1 on nid001204
   Task    92 k-point     1 on nid001204
   Task    93 k-point     1 on nid001204
   Task    94 k-point     1 on nid001204
   Task    95 k-point     1 on nid001204
   Task    96 k-point     1 on nid001204
   Task    97 k-point     1 on nid001204
   Task    98 k-point     1 on nid001204
   Task    99 k-point     1 on nid001204
   Task   100 k-point     1 on nid001204
   Task   101 k-point     1 on nid001204
   Task   102 k-point     1 on nid001204
   Task   103 k-point     1 on nid001204
   Task   104 k-point     1 on nid001204
   Task   105 k-point     1 on nid001204
   Task   106 k-point     1 on nid001204
   Task   107 k-point     1 on nid001204
   Task   108 k-point     1 on nid001204
   Task   109 k-point     1 on nid001204
   Task   110 k-point     1 on nid001204
   Task   111 k-point     1 on nid001204
   Task   112 k-point     1 on nid001204
   Task   113 k-point     1 on nid001204
   Task   114 k-point     1 on nid001204
   Task   115 k-point     1 on nid001204
   Task   116 k-point     1 on nid001204
   Task   117 k-point     1 on nid001204
   Task   118 k-point     1 on nid001204
   Task   119 k-point     1 on nid001204
   Task   120 k-point     1 on nid001204
   Task   121 k-point     1 on nid001204
   Task   122 k-point     1 on nid001204
   Task   123 k-point     1 on nid001204
   Task   124 k-point     1 on nid001204
   Task   125 k-point     1 on nid001204
   Task   126 k-point     1 on nid001204
   Task   127 k-point     1 on nid001204
  Tasks:   128 split into     16 X      8 BLACS grid
  Calculating block size based on n_basis =          780  max_nprow =           16  max_npcol =            8
  ScaLAPACK block size set to:           16
  Allocating        0.049 MB for ovlp
  Allocating        0.049 MB for ham
  Allocating        0.049 MB for eigenvec
  Required Scalapack workspace - INTEGER:            1  REAL:             1
  Available memory per node after initialize_scalapack [GB]:    227.58
  Available memory per node after aims_elsi_init_scf [GB]:    227.58
  Available memory per node after initialize_fixed_grids [GB]:    227.58
  Partitioning the integration grid into batches with parallel hashing+maxmin method.
  | Number of batches:     9548
  | Maximal batch size:     200
  | Minimal batch size:       1
  | Average batch size:      95.745
  | Standard deviation of batch sizes:      27.207

  Integration load balanced across   128 MPI tasks.
  Work distribution over tasks is as follows:
  Task     0 has       7088 integration points.
  Task     1 has       7168 integration points.
  Task     2 has       7111 integration points.
  Task     3 has       7153 integration points.
  Task     4 has       7152 integration points.
  Task     5 has       7149 integration points.
  Task     6 has       7095 integration points.
  Task     7 has       7157 integration points.
  Task     8 has       7153 integration points.
  Task     9 has       7090 integration points.
  Task    10 has       7210 integration points.
  Task    11 has       7086 integration points.
  Task    12 has       7066 integration points.
  Task    13 has       7147 integration points.
  Task    14 has       7082 integration points.
  Task    15 has       7156 integration points.
  Task    16 has       7099 integration points.
  Task    17 has       7102 integration points.
  Task    18 has       7179 integration points.
  Task    19 has       7167 integration points.
  Task    20 has       7198 integration points.
  Task    21 has       7154 integration points.
  Task    22 has       7100 integration points.
  Task    23 has       7165 integration points.
  Task    24 has       7177 integration points.
  Task    25 has       7100 integration points.
  Task    26 has       7105 integration points.
  Task    27 has       7151 integration points.
  Task    28 has       7204 integration points.
  Task    29 has       7157 integration points.
  Task    30 has       7099 integration points.
  Task    31 has       7103 integration points.
  Task    32 has       7148 integration points.
  Task    33 has       7104 integration points.
  Task    34 has       7093 integration points.
  Task    35 has       7204 integration points.
  Task    36 has       7206 integration points.
  Task    37 has       7200 integration points.
  Task    38 has       7162 integration points.
  Task    39 has       7204 integration points.
  Task    40 has       7153 integration points.
  Task    41 has       7156 integration points.
  Task    42 has       7078 integration points.
  Task    43 has       7091 integration points.
  Task    44 has       7174 integration points.
  Task    45 has       7194 integration points.
  Task    46 has       7199 integration points.
  Task    47 has       7101 integration points.
  Task    48 has       7206 integration points.
  Task    49 has       7088 integration points.
  Task    50 has       7223 integration points.
  Task    51 has       7152 integration points.
  Task    52 has       7154 integration points.
  Task    53 has       7201 integration points.
  Task    54 has       7091 integration points.
  Task    55 has       7204 integration points.
  Task    56 has       7104 integration points.
  Task    57 has       7101 integration points.
  Task    58 has       7202 integration points.
  Task    59 has       7173 integration points.
  Task    60 has       7114 integration points.
  Task    61 has       7202 integration points.
  Task    62 has       7097 integration points.
  Task    63 has       7155 integration points.
  Task    64 has       7090 integration points.
  Task    65 has       7157 integration points.
  Task    66 has       7106 integration points.
  Task    67 has       7099 integration points.
  Task    68 has       7104 integration points.
  Task    69 has       7148 integration points.
  Task    70 has       7081 integration points.
  Task    71 has       7153 integration points.
  Task    72 has       7156 integration points.
  Task    73 has       7163 integration points.
  Task    74 has       7164 integration points.
  Task    75 has       7098 integration points.
  Task    76 has       7112 integration points.
  Task    77 has       7158 integration points.
  Task    78 has       7092 integration points.
  Task    79 has       7152 integration points.
  Task    80 has       7094 integration points.
  Task    81 has       7201 integration points.
  Task    82 has       7193 integration points.
  Task    83 has       7091 integration points.
  Task    84 has       7095 integration points.
  Task    85 has       7101 integration points.
  Task    86 has       7093 integration points.
  Task    87 has       7167 integration points.
  Task    88 has       7153 integration points.
  Task    89 has       7144 integration points.
  Task    90 has       7177 integration points.
  Task    91 has       7088 integration points.
  Task    92 has       7092 integration points.
  Task    93 has       7158 integration points.
  Task    94 has       7154 integration points.
  Task    95 has       7100 integration points.
  Task    96 has       7151 integration points.
  Task    97 has       7173 integration points.
  Task    98 has       7210 integration points.
  Task    99 has       7200 integration points.
  Task   100 has       7145 integration points.
  Task   101 has       7143 integration points.
  Task   102 has       7158 integration points.
  Task   103 has       7176 integration points.
  Task   104 has       7210 integration points.
  Task   105 has       7204 integration points.
  Task   106 has       7093 integration points.
  Task   107 has       7156 integration points.
  Task   108 has       7158 integration points.
  Task   109 has       7154 integration points.
  Task   110 has       7213 integration points.
  Task   111 has       7145 integration points.
  Task   112 has       7175 integration points.
  Task   113 has       7200 integration points.
  Task   114 has       7096 integration points.
  Task   115 has       7120 integration points.
  Task   116 has       7063 integration points.
  Task   117 has       7151 integration points.
  Task   118 has       7065 integration points.
  Task   119 has       7102 integration points.
  Task   120 has       7173 integration points.
  Task   121 has       7197 integration points.
  Task   122 has       7174 integration points.
  Task   123 has       7153 integration points.
  Task   124 has       7072 integration points.
  Task   125 has       7152 integration points.
  Task   126 has       7088 integration points.
  Task   127 has       7115 integration points.
  Available memory per node after partition_grid [GB]:    227.50
  Initializing partition tables, free-atom densities, potentials, etc. across the integration grid (initialize_grid_storage).
  | initialize_grid_storage: Actual outermost partition radius vs. multipole_radius_free
  | (-- VB: in principle, multipole_radius_free should be larger, hence this output)
  | Species        1: Confinement radius =              6.000000000000000 AA, multipole_radius_free =              6.029870734432609 AA.
  | Species        1: outer_partition_radius set to              6.029870734432609 AA .
  | Species        2: Confinement radius =              6.000000000000000 AA, multipole_radius_free =              6.064445521808699 AA.
  | Species        2: outer_partition_radius set to              6.064445521808699 AA .
  | Species        3: Confinement radius =              6.000000000000000 AA, multipole_radius_free =              6.071692442739658 AA.
  | Species        3: outer_partition_radius set to              6.071692442739658 AA .
  | The sparse table of interatomic distances needs         15.27 kbyte instead of        10.37 kbyte of memory.
  | Using the partition_type stratmann_smoother will reduce your memory usage.
  | Net number of integration points:   914176
  | of which are non-zero points    :   698656
  Available memory per node after initialize_grid_storage_p1 [GB]:    227.44
  Renormalizing the initial density to the exact electron count on the 3D integration grid.
  | Initial density: Formal number of electrons (from input files) :     100.0000000000
  | Integrated number of electrons on 3D grid     :      99.9999917963
  | Charge integration error                      :      -0.0000082037
  | Normalization factor for density and gradient :       1.0000000820
  Renormalizing the free-atom superposition density to the exact electron count on the 3D integration grid.
  | Formal number of electrons (from input files) :     100.0000000000
  | Integrated number of electrons on 3D grid     :      99.9999917963
  | Charge integration error                      :      -0.0000082037
  | Normalization factor for density and gradient :       1.0000000820
  Obtaining max. number of non-zero basis functions in each batch (get_n_compute_maxes).
  | Maximal number of non-zero basis functions:      459 in task     0
  | Maximal number of non-zero basis functions:      511 in task     1
  | Maximal number of non-zero basis functions:      538 in task     2
  | Maximal number of non-zero basis functions:      484 in task     3
  | Maximal number of non-zero basis functions:      536 in task     4
  | Maximal number of non-zero basis functions:      472 in task     5
  | Maximal number of non-zero basis functions:      490 in task     6
  | Maximal number of non-zero basis functions:      489 in task     7
  | Maximal number of non-zero basis functions:      486 in task     8
  | Maximal number of non-zero basis functions:      516 in task     9
  | Maximal number of non-zero basis functions:      486 in task    10
  | Maximal number of non-zero basis functions:      502 in task    11
  | Maximal number of non-zero basis functions:      443 in task    12
  | Maximal number of non-zero basis functions:      522 in task    13
  | Maximal number of non-zero basis functions:      486 in task    14
  | Maximal number of non-zero basis functions:      457 in task    15
  | Maximal number of non-zero basis functions:      442 in task    16
  | Maximal number of non-zero basis functions:      508 in task    17
  | Maximal number of non-zero basis functions:      463 in task    18
  | Maximal number of non-zero basis functions:      486 in task    19
  | Maximal number of non-zero basis functions:      489 in task    20
  | Maximal number of non-zero basis functions:      475 in task    21
  | Maximal number of non-zero basis functions:      474 in task    22
[...]
  Polynomial ifit point:               5
  Polynomial coeffs size:               5
  Polynomial coeffs:       0.653E-10
  Polynomial coeffs:               4
  Polynomial derivative coeffs:       0.274E-04
  Polynomial coeffs:               4
  Polynomial derivative coeffs:      -0.344E-04
  Polynomial coeffs:               4
  Polynomial derivative coeffs:      -0.301E-08
  Polynomial coeffs:               4
  Polynomial derivative coeffs:       0.261E-09
  Final mu_opt value:       0.796E+00
  Cost function at iteration  24:  0.57589282E+02
  Convergence criteria at iteration   24:  0.39542236E-05
  LMO optimisation converged!
  Final cost function value:          57.58928228
  Evaluating Hirshfeld population matrix using the KS eigenstates.
  ------------------------------------------------------------
 Exporting DM for embedding
  Evaluating density matrix
      Allocating      0.052 MB for tmp
      Allocating      0.067 MB for tmp
      Deallocating tmp
      Deallocating tmp
  Finished density matrix calculation
  | Time :     0.002 s
 Exporting DM for embedding
  Evaluating density matrix
      Allocating      0.052 MB for tmp
      Allocating      0.067 MB for tmp
      Deallocating tmp
      Deallocating tmp
  Finished density matrix calculation
  | Time :     0.000 s
  Finished localisation of CMOs in           1.582 s

  ------------------------------------------------------------
            Completed Unitary Localisation of CMOs
  ------------------------------------------------------------

  Integrating Hamiltonian matrix: batch-based integration.
  Time summed over all CPUs for integration: real work       67.472 s, elapsed       73.291 s
          Integrate hamiltonian matrix - separate compo:  max(cpu_time)    wall_clock(cpu1)
          | Total time                                  :        0.597 s           0.595 s
  Writing Kohn-Sham eigenvalues.

  State    Occupation    Eigenvalue [Ha]    Eigenvalue [eV]
      1       2.00000         -18.780682         -511.04836
      2       2.00000         -18.773790         -510.86083
      3       2.00000          -9.938835         -270.44945
      4       2.00000          -9.930399         -270.21992
      5       2.00000          -9.890797         -269.14228
      6       2.00000          -9.890521         -269.13477
      7       2.00000          -9.889263         -269.10055
      8       2.00000          -9.886484         -269.02491
      9       2.00000          -9.885753         -269.00503
     10       2.00000          -9.883178         -268.93497
     11       2.00000          -9.881405         -268.88671
     12       2.00000          -9.878344         -268.80341
     13       2.00000          -0.935731          -25.46255
     14       2.00000          -0.932688          -25.37972
     15       2.00000          -0.733738          -19.96603
     16       2.00000          -0.728061          -19.81156
     17       2.00000          -0.681094          -18.53351
     18       2.00000          -0.674923          -18.36559
     19       2.00000          -0.608842          -16.56743
     20       2.00000          -0.602177          -16.38608
     21       2.00000          -0.538304          -14.64801
     22       2.00000          -0.532893          -14.50076
     23       2.00000          -0.521369          -14.18717
     24       2.00000          -0.515696          -14.03281
     25       2.00000          -0.462162          -12.57606
     26       2.00000          -0.457237          -12.44205
     27       2.00000          -0.438003          -11.91866
     28       2.00000          -0.432801          -11.77710
     29       2.00000          -0.403892          -10.99047
     30       2.00000          -0.398807          -10.85208
     31       2.00000          -0.382703          -10.41387
     32       2.00000          -0.377514          -10.27267
     33       2.00000          -0.373166          -10.15435
     34       2.00000          -0.369256          -10.04796
     35       2.00000          -0.353013           -9.60597
     36       2.00000          -0.347905           -9.46699
     37       2.00000          -0.334986           -9.11543
     38       2.00000          -0.330693           -8.99862
     39       2.00000          -0.303500           -8.25865
     40       2.00000          -0.300288           -8.17124
     41       2.00000          -0.299390           -8.14681
     42       2.00000          -0.295574           -8.04299
     43       2.00000          -0.294297           -8.00824
     44       2.00000          -0.290861           -7.91473
     45       2.00000          -0.284268           -7.73533
     46       2.00000          -0.279598           -7.60824
     47       2.00000          -0.279261           -7.59908
     48       2.00000          -0.270080           -7.34925
     49       2.00000          -0.230001           -6.25865
     50       2.00000          -0.220028           -5.98727
     51       0.00000          -0.017214           -0.46841
     52       0.00000           0.005120            0.13931
     53       0.00000           0.011879            0.32325
     54       0.00000           0.015487            0.42142
     55       0.00000           0.022590            0.61470
     56       0.00000           0.024964            0.67930
     57       0.00000           0.025909            0.70503
     58       0.00000           0.028214            0.76774
     59       0.00000           0.030037            0.81736
     60       0.00000           0.033764            0.91876
     61       0.00000           0.061059            1.66151
     62       0.00000           0.064522            1.75574
     63       0.00000           0.067150            1.82725
     64       0.00000           0.068617            1.86717
     65       0.00000           0.078783            2.14380
     66       0.00000           0.082310            2.23978
     67       0.00000           0.086422            2.35165
     68       0.00000           0.089715            2.44127
     69       0.00000           0.093131            2.53423
     70       0.00000           0.100180            2.72604
     71       0.00000           0.106264            2.89158
     72       0.00000           0.109524            2.98030
     73       0.00000           0.112112            3.05072
     74       0.00000           0.119581            3.25397
     75       0.00000           0.120036            3.26636
     76       0.00000           0.125078            3.40353
     77       0.00000           0.134318            3.65498
     78       0.00000           0.135592            3.68965
     79       0.00000           0.157751            4.29263
     80       0.00000           0.164379            4.47299
     81       0.00000           0.166646            4.53467
     82       0.00000           0.171650            4.67083
     83       0.00000           0.180979            4.92469
     84       0.00000           0.183799            5.00144
     85       0.00000           0.189069            5.14484
     86       0.00000           0.190912            5.19498
     87       0.00000           0.192725            5.24432
     88       0.00000           0.196923            5.35855
     89       0.00000           0.219116            5.96246
     90       0.00000           0.220656            6.00434
     91       0.00000           0.221746            6.03400
     92       0.00000           0.228703            6.22334
     93       0.00000           0.229474            6.24431
     94       0.00000           0.235710            6.41398
     95       0.00000           0.250987            6.82970
     96       0.00000           0.255001            6.93893
     97       0.00000           0.258116            7.02369
     98       0.00000           0.261161            7.10656
     99       0.00000           0.265630            7.22816
    100       0.00000           0.273597            7.44495
    101       0.00000           0.278751            7.58520
    102       0.00000           0.289497            7.87760
    103       0.00000           0.302252            8.22470
    104       0.00000           0.308148            8.38515
    105       0.00000           0.313001            8.51718
    106       0.00000           0.317932            8.65138
    107       0.00000           0.323484            8.80245
    108       0.00000           0.330743            8.99998
    109       0.00000           0.344137            9.36445
    110       0.00000           0.347532            9.45684
    111       0.00000           0.349572            9.51234
    112       0.00000           0.351693            9.57006
    113       0.00000           0.353295            9.61364
    114       0.00000           0.358648            9.75931
    115       0.00000           0.361686            9.84197
    116       0.00000           0.362523            9.86476
    117       0.00000           0.368289           10.02165
    118       0.00000           0.370027           10.06896
    119       0.00000           0.373255           10.15679
    120       0.00000           0.379618           10.32992
    121       0.00000           0.391512           10.65357
    122       0.00000           0.392759           10.68750

  Highest occupied state (VBM) at     -5.98726652 eV
  | Occupation number:      2.00000000

  Lowest unoccupied state (CBM) at    -0.46840541 eV
  | Occupation number:      0.00000000

  Overall HOMO-LUMO gap:      5.51886111 eV.

  | Chemical Potential                          :    -3.22783596 eV
  | Note that, for insulating systems, the printed 'chemical potential' value is not uniquely defined.
  | It can be anywhere in the energy gap, as long as it correctly separates occupied and unoccupied states.
  | In systems with a gap, the physically relevant chemical potential is the VBM or HOMO.

  Self-consistency cycle converged.


------------------------------------------------------------
  End self-consistency iteration #    14       :  max(cpu_time)    wall_clock(cpu1)
  | Time for this iteration                     :        2.691 s           2.733 s
  | Charge density update                       :        0.000 s           0.000 s
  | Density mixing                              :        0.050 s           0.011 s
  | Hartree multipole update                    :        0.006 s           0.007 s
  | Hartree multipole summation                 :        0.119 s           0.119 s
  | Integration                                 :        0.242 s           0.242 s
  | Solution of K.-S. eqns.                     :        0.056 s           0.056 s
  | Total energy evaluation                     :        0.000 s           0.000 s

  Partial memory accounting:
  | Current value for overall tracked memory usage:
  |   Minimum:        8.484 MB (on task 116)
  |   Maximum:        8.597 MB (on task 104)
  |   Average:        8.541 MB
  | Peak value for overall tracked memory usage:
  |   Minimum:       21.589 MB (on task  36 after allocating wave)
  |   Maximum:       25.443 MB (on task  95 after allocating wave)
  |   Average:       23.514 MB
  | Largest tracked array allocation so far:
  |   Minimum:        4.642 MB (dm_dump on task   0)
  |   Maximum:        4.642 MB (dm_dump on task   0)
  |   Average:        4.642 MB
  Note:  These values currently only include a subset of arrays which are explicitly tracked.
  The "true" memory usage will be greater.
------------------------------------------------------------

  Energy and forces in a compact form:
  | Total energy uncorrected      :         -0.148547584190909E+05 eV
  | Total energy corrected        :         -0.148547584190909E+05 eV  <-- do not rely on this value for anything but (periodic) metals
  | Electronic free energy        :         -0.148547584190909E+05 eV

  ------------------------------------ 
  Start decomposition of the XC Energy 
  ------------------------------------ 
  X and C from original XC functional choice 
  Hartree-Fock Energy :          0.000000000 Ha              0.000000000 eV
  X Energy            :        -76.548416836 Ha          -2082.988403380 eV
  C Energy            :         -3.246490020 Ha            -88.341488203 eV
  XC Energy w/o HF    :        -79.794906855 Ha          -2171.329891583 eV
  Total XC Energy     :        -79.794906855 Ha          -2171.329891583 eV
  ------------------------------------ 
  LDA X and C from self-consistent density 
  X Energy LDA        :        -69.357853811 Ha          -1887.323228159 eV
  C Energy LDA        :         -6.279470701 Ha           -170.873091703 eV
  ------------------------------------ 
  End decomposition of the XC Energy 
  ------------------------------------ 

------------------------------------------------------------
------------------------------------------------------------

------------------------------------------------------------------------------
  Final output of selected total energy values:

  The following output summarizes some interesting total energy values
  at the end of a run (AFTER all relaxation, molecular dynamics, etc.).

  | Total energy of the DFT / Hartree-Fock s.c.f. calculation      :         -14854.758419091 eV
  | Final zero-broadening corrected energy (caution - metals only) :         -14854.758419091 eV
  | For reference only, the value of 1 Hartree used in FHI-aims is :             27.211384500 eV

  Before relying on these values, please be sure to understand exactly which
  total energy value is referred to by a given number. Different objects may
  all carry the same name 'total energy'. Definitions:

  Total energy of the DFT / Hartree-Fock s.c.f. calculation:
  | Note that this energy does not include ANY quantities calculated after the
  | s.c.f. cycle, in particular not ANY RPA, MP2, etc. many-body perturbation terms.

  Final zero-broadening corrected energy:
  | For metallic systems only, a broadening of the occupation numbers at the Fermi
  | level can be extrapolated back to zero broadening by an electron-gas inspired
  | formula. For all systems that are not real metals, this value can be
  | meaningless and should be avoided.

------------------------------------------------------------------------------
  Methods described in the following list of references were used in this FHI-aims run.
  If you publish the results, please make sure to cite these reference if they apply.
  FHI-aims is an academic code, and for our developers (often, Ph.D. students
  and postdocs), scientific credit in the community is essential.
  Thank you for helping us!

  For any use of FHI-aims, please cite:

    Volker Blum, Ralf Gehrke, Felix Hanke, Paula Havu, Ville Havu,
    Xinguo Ren, Karsten Reuter, and Matthias Scheffler
    'Ab initio molecular simulations with numeric atom-centered orbitals'
    Computer Physics Communications 180, 2175-2196 (2009)
    http://doi.org/10.1016/j.cpc.2009.06.022


  For the NAO-VCC-nZ basis sets used in this calculation, please cite:

    Igor Ying Zhang, Xinguo Ren, Patrick Rinke, Volker Blum, and Matthias Scheffler
    'Numeric atom-centered-orbital basis sets with valence-correlation consistency from H to Ar'
    New Journal of Physics 15, 123033 (2013).
    http://doi.org/10.1088/1367-2630/15/12/123033


  The ELSI infrastructure was used in your run to solve the Kohn-Sham electronic structure.
  Please check out https://wordpress.elsi-interchange.org to learn more.
  If scalability is important for your project, please acknowledge ELSI by citing:

    V. W-z. Yu, F. Corsetti, A. Garcia, W. P. Huhn, M. Jacquelin, W. Jia,
    B. Lange, L. Lin, J. Lu, W. Mi, A. Seifitokaldani, A. Vazquez-Mayagoitia,
    C. Yang, H. Yang, and V. Blum
    'ELSI: A unified software interface for Kohn-Sham electronic structure solvers'
    Computer Physics Communications 222, 267-285 (2018).
    http://doi.org/10.1016/j.cpc.2017.09.007


  For the real-space grid partitioning and parallelization used in this calculation, please cite:

    Ville Havu, Volker Blum, Paula Havu, and Matthias Scheffler,
    'Efficient O(N) integration for all-electron electronic structure calculation'
    'using numerically tabulated basis functions'
    Journal of Computational Physics 228, 8367-8379 (2009).
    http://doi.org/10.1016/j.jcp.2009.08.008


  The high-level electronic structure method used in your calculation
  employed our efficient localized resolution of identity for the Coulomb operator.
  Some calculations, especially large-scale hybrid density functional theory,
  are only possible thanks to this development. For this feature, please cite:

    Arvid Ihrig, Juergen Wieferink, Igor Ying Zhang, Matti Ropo, Xinguo Ren,
    Patrick Rinke, Matthias Scheffler, and Volker Blum,
    'Accurate localized resolution of identity approach for linear-scaling
    hybrid density functionals and for many-body perturbation theory'
    New Journal of Physics 117, 093020 (2015).
    http://doi.org/10.1088/1367-2630/17/9/093020

  Of course, there are many other important community references, e.g., those cited in the
  above references. Our list is limited to references that describe implementations in the
  FHI-aims code. The reason is purely practical (length of this list) - please credit others as well.
------------------------------------------------------------
Warnings summary:

At least    2 warnings were raised during execution.

------------------------------------------------------------
          Leaving FHI-aims.
          Date     :  20250714, Time     :  132636.526

          Computational steps:
          | Number of self-consistency cycles          :           14
          | Number of SCF (re)initializations          :            1

          Detailed time accounting                     :  max(cpu_time)    wall_clock(cpu1)
          | Total time                                  :       17.898 s          19.623 s
          | Preparation time                            :        0.321 s           0.382 s
          | Boundary condition initalization            :        0.034 s           0.036 s
          | Grid partitioning                           :        0.714 s           0.715 s
          | Preloading free-atom quantities on grid     :        0.136 s           0.141 s
          | Free-atom superposition energy              :        0.020 s           0.106 s
          | Total time for integrations                 :        3.818 s           3.901 s
          | Total time for solution of K.-S. equations  :        1.179 s           1.431 s
          | Total time for density update               :        6.286 s           6.317 s
          | Total time for mixing                       :        0.666 s           0.098 s
          | Total time for Hartree multipole update     :        0.100 s           0.104 s
          | Total time for Hartree multipole sum        :        1.660 s           1.708 s
          | Total time for total energy evaluation      :        0.011 s           0.010 s
          | Total time for scaled ZORA corrections      :        0.000 s           0.000 s

          Partial memory accounting:
          | Residual value for overall tracked memory usage across tasks:     0.000000 MB (should be 0.000000 MB)
          | Peak values for overall tracked memory usage:
          |   Minimum:       21.589 MB (on task  36 after allocating wave)
          |   Maximum:       25.443 MB (on task  95 after allocating wave)
          |   Average:       23.514 MB
          | Largest tracked array allocation:
          |   Minimum:        4.642 MB (dm_dump on task   0)
          |   Maximum:        4.642 MB (dm_dump on task   0)
          |   Average:        4.642 MB
          Note:  These values currently only include a subset of arrays which are explicitly tracked.
          The "true" memory usage will be greater.

          Have a nice day.
------------------------------------------------------------
