36
Properties=species:S:1:pos:R:3:forces:R:3 energy=-193.89540100097656 stress="-inf -inf inf -inf inf -inf inf -inf inf" free_energy=-193.89540100097656 pbc="F F F"
C        2.94244472       0.01420411       0.06974410       0.01627378      -0.00042748       0.00418754
C        1.58523947      -0.45050003      -0.44302683       0.01109363       0.00242260       0.00625801
C        0.42743068       0.38531307       0.10171131       0.00083688       0.00033033      -0.00051207
C       -0.92909062      -0.11074362      -0.37948525      -0.00444845      -0.00584017      -0.00203928
C       -2.08698159       0.73454658       0.13756723      -0.00064504       0.00117797       0.00401294
O       -3.30959357       0.13748183      -0.29162546       0.00836551       0.00339699       0.00011355
H        3.74108550      -0.53096572      -0.43844962      -0.00671183      -0.00595015       0.00276788
H        3.04238491      -0.16903781       1.14453345      -0.00513268       0.00427423      -0.01075603
H        3.09523332       1.08289383      -0.11068144      -0.00717324       0.00103620      -0.00618699
H        1.56060989      -0.40276707      -1.53871227       0.00175293       0.00246801       0.00615320
H        1.42087987      -1.49886571      -0.16588184       0.00112730       0.00290808       0.00112282
H        0.55538988       1.43420432      -0.20190275      -0.00281002       0.00307401      -0.00256631
H        0.43760960       0.36687009       1.20086180       0.00403064       0.00188360       0.00218070
H       -0.94141062      -0.11517384      -1.47996099      -0.00698388       0.00741674      -0.00338177
H       -1.05614022      -1.15441178      -0.05392045      -0.00088046      -0.00832315      -0.00204152
H       -2.00702138       1.75571755      -0.26423810       0.00231561      -0.00046456      -0.00203449
H       -2.05326137       0.77329522       1.23754483      -0.00485072       0.00378537       0.00383356
H       -4.03462733       0.75289564      -0.10445060      -0.00041796       0.00307247       0.00496130
C       -4.68451055      -7.85073899       2.53910404       0.00190230       0.00143354       0.00065310
C       -4.94479762      -6.38952399       2.88158609      -0.00162692       0.00932634      -0.00043672
C       -4.56892479      -5.43972073       1.74331534       0.00690761       0.00082659      -0.00946310
C       -4.77387262      -3.97326221       2.09371874       0.00326498      -0.00690697       0.00413646
C       -4.27348600      -3.02754564       0.99674037      -0.00231141      -0.00201356       0.00707209
O       -4.35951346      -1.70490523       1.44321628       0.00027823       0.00732243      -0.00134242
H       -4.93001970      -8.48487343       3.39407239      -0.00166344       0.00765055      -0.00593209
H       -5.29526730      -8.17549486       1.69066951       0.00200154       0.00790426       0.00847945
H       -3.63191662      -8.01474060       2.28704049      -0.00777687      -0.00497501       0.00101186
H       -4.37096525      -6.10476594       3.77184935      -0.00204946      -0.00456860       0.00342232
H       -6.00404262      -6.24210820       3.12248937      -0.00903805      -0.00455783      -0.00426196
H       -3.51502744      -5.59613202       1.47212945       0.00352654       0.00611153      -0.00748326
H       -5.16721092      -5.67980845       0.85264114       0.00124627       0.00504133       0.00097109
H       -4.25359425      -3.75211385       3.03733129       0.00105514       0.00633255       0.00004525
H       -5.84616419      -3.78930407       2.25931676       0.00461057      -0.00725329       0.00263557
H       -3.22971884      -3.28889033       0.74964815      -0.00476258      -0.01177765      -0.00385591
H       -4.89287517      -3.17327096       0.09511773      -0.00356271      -0.01803437       0.00223544
H       -3.99241594      -1.10905252       0.74984363       0.00225623      -0.00810343      -0.00396045
