18
Properties=species:S:1:pos:R:3:forces:R:3 dist=0.0 pbc="F F F"
C        2.74868465      -0.33951684       0.36527502       0.01627378      -0.00042748       0.00418754
C        1.39147940      -0.80422098      -0.14749591       0.01109363       0.00242260       0.00625801
C        0.23367061       0.03159212       0.39724223       0.00083688       0.00033033      -0.00051207
C       -1.12285069      -0.46446457      -0.08395433      -0.00444845      -0.00584017      -0.00203928
C       -2.28074166       0.38082563       0.43309815      -0.00064504       0.00117797       0.00401294
O       -3.50335364      -0.21623912       0.00390546       0.00836551       0.00339699       0.00011355
H        3.54732543      -0.88468667      -0.14291870      -0.00671183      -0.00595015       0.00276788
H        2.84862484      -0.52275876       1.44006437      -0.00513268       0.00427423      -0.01075603
H        2.90147325       0.72917288       0.18484948      -0.00717324       0.00103620      -0.00618699
H        1.36684982      -0.75648802      -1.24318135       0.00175293       0.00246801       0.00615320
H        1.22711980      -1.85258666       0.12964908       0.00112730       0.00290808       0.00112282
H        0.36162981       1.08048337       0.09362817      -0.00281002       0.00307401      -0.00256631
H        0.24384953       0.01314914       1.49639272       0.00403064       0.00188360       0.00218070
H       -1.13517069      -0.46889479      -1.18443007      -0.00698388       0.00741674      -0.00338177
H       -1.24990029      -1.50813273       0.24161047      -0.00088046      -0.00832315      -0.00204152
H       -2.20078145       1.40199660       0.03129282       0.00231561      -0.00046456      -0.00203449
H       -2.24702144       0.41957427       1.53307575      -0.00485072       0.00378537       0.00383356
H       -4.22838740       0.39917469       0.19108032      -0.00041796       0.00307247       0.00496130
