36
Properties=species:S:1:pos:R:3:forces:R:3 dist=1.2620306864886794 energy=-193.89540100097656 stress="-inf -inf inf -inf inf -inf inf -inf inf" free_energy=-193.89540100097656 pbc="F F F"
C        2.74868465      -0.33951684       0.36527502       0.01627378      -0.00042748       0.00418754
C        1.39147940      -0.80422098      -0.14749591       0.01109363       0.00242260       0.00625801
C        0.23367061       0.03159212       0.39724223       0.00083688       0.00033033      -0.00051207
C       -1.12285069      -0.46446457      -0.08395433      -0.00444845      -0.00584017      -0.00203928
C       -2.28074166       0.38082563       0.43309815      -0.00064504       0.00117797       0.00401294
O       -3.50335364      -0.21623912       0.00390546       0.00836551       0.00339699       0.00011355
H        3.54732543      -0.88468667      -0.14291870      -0.00671183      -0.00595015       0.00276788
H        2.84862484      -0.52275876       1.44006437      -0.00513268       0.00427423      -0.01075603
H        2.90147325       0.72917288       0.18484948      -0.00717324       0.00103620      -0.00618699
H        1.36684982      -0.75648802      -1.24318135       0.00175293       0.00246801       0.00615320
H        1.22711980      -1.85258666       0.12964908       0.00112730       0.00290808       0.00112282
H        0.36162981       1.08048337       0.09362817      -0.00281002       0.00307401      -0.00256631
H        0.24384953       0.01314914       1.49639272       0.00403064       0.00188360       0.00218070
H       -1.13517069      -0.46889479      -1.18443007      -0.00698388       0.00741674      -0.00338177
H       -1.24990029      -1.50813273       0.24161047      -0.00088046      -0.00832315      -0.00204152
H       -2.20078145       1.40199660       0.03129282       0.00231561      -0.00046456      -0.00203449
H       -2.24702144       0.41957427       1.53307575      -0.00485072       0.00378537       0.00383356
H       -4.22838740       0.39917469       0.19108032      -0.00041796       0.00307247       0.00496130
C       -4.68451055      -7.85073899       2.53910404       0.00190230       0.00143354       0.00065310
C       -4.94479762      -6.38952399       2.88158609      -0.00162692       0.00932634      -0.00043672
C       -4.56892479      -5.43972073       1.74331534       0.00690761       0.00082659      -0.00946310
C       -4.77387262      -3.97326221       2.09371874       0.00326498      -0.00690697       0.00413646
C       -4.27348600      -3.02754564       0.99674037      -0.00231141      -0.00201356       0.00707209
O       -4.35951346      -1.70490523       1.44321628       0.00027823       0.00732243      -0.00134242
H       -4.93001970      -8.48487343       3.39407239      -0.00166344       0.00765055      -0.00593209
H       -5.29526730      -8.17549486       1.69066951       0.00200154       0.00790426       0.00847945
H       -3.63191662      -8.01474060       2.28704049      -0.00777687      -0.00497501       0.00101186
H       -4.37096525      -6.10476594       3.77184935      -0.00204946      -0.00456860       0.00342232
H       -6.00404262      -6.24210820       3.12248937      -0.00903805      -0.00455783      -0.00426196
H       -3.51502744      -5.59613202       1.47212945       0.00352654       0.00611153      -0.00748326
H       -5.16721092      -5.67980845       0.85264114       0.00124627       0.00504133       0.00097109
H       -4.25359425      -3.75211385       3.03733129       0.00105514       0.00633255       0.00004525
H       -5.84616419      -3.78930407       2.25931676       0.00461057      -0.00725329       0.00263557
H       -3.22971884      -3.28889033       0.74964815      -0.00476258      -0.01177765      -0.00385591
H       -4.89287517      -3.17327096       0.09511773      -0.00356271      -0.01803437       0.00223544
H       -3.99241594      -1.10905252       0.74984363       0.00225623      -0.00810343      -0.00396045
36
Properties=species:S:1:pos:R:3:forces:R:3 dist=1.3620306864886795 energy=-193.89540100097656 stress="-inf -inf inf -inf inf -inf inf -inf inf" free_energy=-193.89540100097656 pbc="F F F"
C        2.78743667      -0.26877265       0.30616883       0.01627378      -0.00042748       0.00418754
C        1.43023142      -0.73347679      -0.20660210       0.01109363       0.00242260       0.00625801
C        0.27242263       0.10233631       0.33813604       0.00083688       0.00033033      -0.00051207
C       -1.08409867      -0.39372038      -0.14306052      -0.00444845      -0.00584017      -0.00203928
C       -2.24198964       0.45156982       0.37399196      -0.00064504       0.00117797       0.00401294
O       -3.46460162      -0.14549493      -0.05520073       0.00836551       0.00339699       0.00011355
H        3.58607745      -0.81394248      -0.20202489      -0.00671183      -0.00595015       0.00276788
H        2.88737686      -0.45201457       1.38095818      -0.00513268       0.00427423      -0.01075603
H        2.94022527       0.79991707       0.12574329      -0.00717324       0.00103620      -0.00618699
H        1.40560184      -0.68574383      -1.30228754       0.00175293       0.00246801       0.00615320
H        1.26587182      -1.78184247       0.07054289       0.00112730       0.00290808       0.00112282
H        0.40038183       1.15122756       0.03452198      -0.00281002       0.00307401      -0.00256631
H        0.28260155       0.08389333       1.43728653       0.00403064       0.00188360       0.00218070
H       -1.09641867      -0.39815060      -1.24353626      -0.00698388       0.00741674      -0.00338177
H       -1.21114827      -1.43738854       0.18250428      -0.00088046      -0.00832315      -0.00204152
H       -2.16202943       1.47274079      -0.02781337       0.00231561      -0.00046456      -0.00203449
H       -2.20826942       0.49031846       1.47396956      -0.00485072       0.00378537       0.00383356
H       -4.18963538       0.46991888       0.13197413      -0.00041796       0.00307247       0.00496130
C       -4.68451055      -7.85073899       2.53910404       0.00190230       0.00143354       0.00065310
C       -4.94479762      -6.38952399       2.88158609      -0.00162692       0.00932634      -0.00043672
C       -4.56892479      -5.43972073       1.74331534       0.00690761       0.00082659      -0.00946310
C       -4.77387262      -3.97326221       2.09371874       0.00326498      -0.00690697       0.00413646
C       -4.27348600      -3.02754564       0.99674037      -0.00231141      -0.00201356       0.00707209
O       -4.35951346      -1.70490523       1.44321628       0.00027823       0.00732243      -0.00134242
H       -4.93001970      -8.48487343       3.39407239      -0.00166344       0.00765055      -0.00593209
H       -5.29526730      -8.17549486       1.69066951       0.00200154       0.00790426       0.00847945
H       -3.63191662      -8.01474060       2.28704049      -0.00777687      -0.00497501       0.00101186
H       -4.37096525      -6.10476594       3.77184935      -0.00204946      -0.00456860       0.00342232
H       -6.00404262      -6.24210820       3.12248937      -0.00903805      -0.00455783      -0.00426196
H       -3.51502744      -5.59613202       1.47212945       0.00352654       0.00611153      -0.00748326
H       -5.16721092      -5.67980845       0.85264114       0.00124627       0.00504133       0.00097109
H       -4.25359425      -3.75211385       3.03733129       0.00105514       0.00633255       0.00004525
H       -5.84616419      -3.78930407       2.25931676       0.00461057      -0.00725329       0.00263557
H       -3.22971884      -3.28889033       0.74964815      -0.00476258      -0.01177765      -0.00385591
H       -4.89287517      -3.17327096       0.09511773      -0.00356271      -0.01803437       0.00223544
H       -3.99241594      -1.10905252       0.74984363       0.00225623      -0.00810343      -0.00396045
36
Properties=species:S:1:pos:R:3:forces:R:3 dist=1.4620306864886796 energy=-193.89540100097656 stress="-inf -inf inf -inf inf -inf inf -inf inf" free_energy=-193.89540100097656 pbc="F F F"
C        2.82618868      -0.19802846       0.24706265       0.01627378      -0.00042748       0.00418754
C        1.46898343      -0.66273260      -0.26570828       0.01109363       0.00242260       0.00625801
C        0.31117464       0.17308050       0.27902986       0.00083688       0.00033033      -0.00051207
C       -1.04534666      -0.32297619      -0.20216670      -0.00444845      -0.00584017      -0.00203928
C       -2.20323763       0.52231401       0.31488578      -0.00064504       0.00117797       0.00401294
O       -3.42584961      -0.07475074      -0.11430691       0.00836551       0.00339699       0.00011355
H        3.62482946      -0.74319829      -0.26113107      -0.00671183      -0.00595015       0.00276788
H        2.92612887      -0.38127038       1.32185200      -0.00513268       0.00427423      -0.01075603
H        2.97897728       0.87066126       0.06663711      -0.00717324       0.00103620      -0.00618699
H        1.44435385      -0.61499964      -1.36139372       0.00175293       0.00246801       0.00615320
H        1.30462383      -1.71109828       0.01143671       0.00112730       0.00290808       0.00112282
H        0.43913384       1.22197175      -0.02458420      -0.00281002       0.00307401      -0.00256631
H        0.32135356       0.15463752       1.37818035       0.00403064       0.00188360       0.00218070
H       -1.05766666      -0.32740641      -1.30264244      -0.00698388       0.00741674      -0.00338177
H       -1.17239626      -1.36664435       0.12339810      -0.00088046      -0.00832315      -0.00204152
H       -2.12327742       1.54348498      -0.08691955       0.00231561      -0.00046456      -0.00203449
H       -2.16951741       0.56106265       1.41486338      -0.00485072       0.00378537       0.00383356
H       -4.15088337       0.54066307       0.07286795      -0.00041796       0.00307247       0.00496130
C       -4.68451055      -7.85073899       2.53910404       0.00190230       0.00143354       0.00065310
C       -4.94479762      -6.38952399       2.88158609      -0.00162692       0.00932634      -0.00043672
C       -4.56892479      -5.43972073       1.74331534       0.00690761       0.00082659      -0.00946310
C       -4.77387262      -3.97326221       2.09371874       0.00326498      -0.00690697       0.00413646
C       -4.27348600      -3.02754564       0.99674037      -0.00231141      -0.00201356       0.00707209
O       -4.35951346      -1.70490523       1.44321628       0.00027823       0.00732243      -0.00134242
H       -4.93001970      -8.48487343       3.39407239      -0.00166344       0.00765055      -0.00593209
H       -5.29526730      -8.17549486       1.69066951       0.00200154       0.00790426       0.00847945
H       -3.63191662      -8.01474060       2.28704049      -0.00777687      -0.00497501       0.00101186
H       -4.37096525      -6.10476594       3.77184935      -0.00204946      -0.00456860       0.00342232
H       -6.00404262      -6.24210820       3.12248937      -0.00903805      -0.00455783      -0.00426196
H       -3.51502744      -5.59613202       1.47212945       0.00352654       0.00611153      -0.00748326
H       -5.16721092      -5.67980845       0.85264114       0.00124627       0.00504133       0.00097109
H       -4.25359425      -3.75211385       3.03733129       0.00105514       0.00633255       0.00004525
H       -5.84616419      -3.78930407       2.25931676       0.00461057      -0.00725329       0.00263557
H       -3.22971884      -3.28889033       0.74964815      -0.00476258      -0.01177765      -0.00385591
H       -4.89287517      -3.17327096       0.09511773      -0.00356271      -0.01803437       0.00223544
H       -3.99241594      -1.10905252       0.74984363       0.00225623      -0.00810343      -0.00396045
36
Properties=species:S:1:pos:R:3:forces:R:3 dist=1.5620306864886795 energy=-193.89540100097656 stress="-inf -inf inf -inf inf -inf inf -inf inf" free_energy=-193.89540100097656 pbc="F F F"
C        2.86494069      -0.12728427       0.18795647       0.01627378      -0.00042748       0.00418754
C        1.50773544      -0.59198841      -0.32481446       0.01109363       0.00242260       0.00625801
C        0.34992665       0.24382469       0.21992368       0.00083688       0.00033033      -0.00051207
C       -1.00659465      -0.25223200      -0.26127288      -0.00444845      -0.00584017      -0.00203928
C       -2.16448562       0.59305820       0.25577960      -0.00064504       0.00117797       0.00401294
O       -3.38709760      -0.00400655      -0.17341309       0.00836551       0.00339699       0.00011355
H        3.66358147      -0.67245410      -0.32023725      -0.00671183      -0.00595015       0.00276788
H        2.96488088      -0.31052619       1.26274582      -0.00513268       0.00427423      -0.01075603
H        3.01772929       0.94140545       0.00753093      -0.00717324       0.00103620      -0.00618699
H        1.48310586      -0.54425545      -1.42049990       0.00175293       0.00246801       0.00615320
H        1.34337584      -1.64035409      -0.04766947       0.00112730       0.00290808       0.00112282
H        0.47788585       1.29271594      -0.08369038      -0.00281002       0.00307401      -0.00256631
H        0.36010557       0.22538171       1.31907417       0.00403064       0.00188360       0.00218070
H       -1.01891465      -0.25666222      -1.36174862      -0.00698388       0.00741674      -0.00338177
H       -1.13364425      -1.29590016       0.06429192      -0.00088046      -0.00832315      -0.00204152
H       -2.08452541       1.61422917      -0.14602573       0.00231561      -0.00046456      -0.00203449
H       -2.13076540       0.63180684       1.35575720      -0.00485072       0.00378537       0.00383356
H       -4.11213136       0.61140726       0.01376177      -0.00041796       0.00307247       0.00496130
C       -4.68451055      -7.85073899       2.53910404       0.00190230       0.00143354       0.00065310
C       -4.94479762      -6.38952399       2.88158609      -0.00162692       0.00932634      -0.00043672
C       -4.56892479      -5.43972073       1.74331534       0.00690761       0.00082659      -0.00946310
C       -4.77387262      -3.97326221       2.09371874       0.00326498      -0.00690697       0.00413646
C       -4.27348600      -3.02754564       0.99674037      -0.00231141      -0.00201356       0.00707209
O       -4.35951346      -1.70490523       1.44321628       0.00027823       0.00732243      -0.00134242
H       -4.93001970      -8.48487343       3.39407239      -0.00166344       0.00765055      -0.00593209
H       -5.29526730      -8.17549486       1.69066951       0.00200154       0.00790426       0.00847945
H       -3.63191662      -8.01474060       2.28704049      -0.00777687      -0.00497501       0.00101186
H       -4.37096525      -6.10476594       3.77184935      -0.00204946      -0.00456860       0.00342232
H       -6.00404262      -6.24210820       3.12248937      -0.00903805      -0.00455783      -0.00426196
H       -3.51502744      -5.59613202       1.47212945       0.00352654       0.00611153      -0.00748326
H       -5.16721092      -5.67980845       0.85264114       0.00124627       0.00504133       0.00097109
H       -4.25359425      -3.75211385       3.03733129       0.00105514       0.00633255       0.00004525
H       -5.84616419      -3.78930407       2.25931676       0.00461057      -0.00725329       0.00263557
H       -3.22971884      -3.28889033       0.74964815      -0.00476258      -0.01177765      -0.00385591
H       -4.89287517      -3.17327096       0.09511773      -0.00356271      -0.01803437       0.00223544
H       -3.99241594      -1.10905252       0.74984363       0.00225623      -0.00810343      -0.00396045
36
Properties=species:S:1:pos:R:3:forces:R:3 dist=1.6620306864886796 energy=-193.89540100097656 stress="-inf -inf inf -inf inf -inf inf -inf inf" free_energy=-193.89540100097656 pbc="F F F"
C        2.90369271      -0.05654008       0.12885028       0.01627378      -0.00042748       0.00418754
C        1.54648746      -0.52124422      -0.38392065       0.01109363       0.00242260       0.00625801
C        0.38867867       0.31456888       0.16081749       0.00083688       0.00033033      -0.00051207
C       -0.96784263      -0.18148781      -0.32037907      -0.00444845      -0.00584017      -0.00203928
C       -2.12573360       0.66380239       0.19667341      -0.00064504       0.00117797       0.00401294
O       -3.34834558       0.06673764      -0.23251928       0.00836551       0.00339699       0.00011355
H        3.70233349      -0.60170991      -0.37934344      -0.00671183      -0.00595015       0.00276788
H        3.00363290      -0.23978200       1.20363963      -0.00513268       0.00427423      -0.01075603
H        3.05648131       1.01214964      -0.05157526      -0.00717324       0.00103620      -0.00618699
H        1.52185788      -0.47351126      -1.47960609       0.00175293       0.00246801       0.00615320
H        1.38212786      -1.56960990      -0.10677566       0.00112730       0.00290808       0.00112282
H        0.51663787       1.36346013      -0.14279657      -0.00281002       0.00307401      -0.00256631
H        0.39885759       0.29612590       1.25996798       0.00403064       0.00188360       0.00218070
H       -0.98016263      -0.18591803      -1.42085481      -0.00698388       0.00741674      -0.00338177
H       -1.09489223      -1.22515597       0.00518573      -0.00088046      -0.00832315      -0.00204152
H       -2.04577339       1.68497336      -0.20513192       0.00231561      -0.00046456      -0.00203449
H       -2.09201338       0.70255103       1.29665101      -0.00485072       0.00378537       0.00383356
H       -4.07337934       0.68215145      -0.04534442      -0.00041796       0.00307247       0.00496130
C       -4.68451055      -7.85073899       2.53910404       0.00190230       0.00143354       0.00065310
C       -4.94479762      -6.38952399       2.88158609      -0.00162692       0.00932634      -0.00043672
C       -4.56892479      -5.43972073       1.74331534       0.00690761       0.00082659      -0.00946310
C       -4.77387262      -3.97326221       2.09371874       0.00326498      -0.00690697       0.00413646
C       -4.27348600      -3.02754564       0.99674037      -0.00231141      -0.00201356       0.00707209
O       -4.35951346      -1.70490523       1.44321628       0.00027823       0.00732243      -0.00134242
H       -4.93001970      -8.48487343       3.39407239      -0.00166344       0.00765055      -0.00593209
H       -5.29526730      -8.17549486       1.69066951       0.00200154       0.00790426       0.00847945
H       -3.63191662      -8.01474060       2.28704049      -0.00777687      -0.00497501       0.00101186
H       -4.37096525      -6.10476594       3.77184935      -0.00204946      -0.00456860       0.00342232
H       -6.00404262      -6.24210820       3.12248937      -0.00903805      -0.00455783      -0.00426196
H       -3.51502744      -5.59613202       1.47212945       0.00352654       0.00611153      -0.00748326
H       -5.16721092      -5.67980845       0.85264114       0.00124627       0.00504133       0.00097109
H       -4.25359425      -3.75211385       3.03733129       0.00105514       0.00633255       0.00004525
H       -5.84616419      -3.78930407       2.25931676       0.00461057      -0.00725329       0.00263557
H       -3.22971884      -3.28889033       0.74964815      -0.00476258      -0.01177765      -0.00385591
H       -4.89287517      -3.17327096       0.09511773      -0.00356271      -0.01803437       0.00223544
H       -3.99241594      -1.10905252       0.74984363       0.00225623      -0.00810343      -0.00396045
36
Properties=species:S:1:pos:R:3:forces:R:3 dist=1.7620306864886794 energy=-193.89540100097656 stress="-inf -inf inf -inf inf -inf inf -inf inf" free_energy=-193.89540100097656 pbc="F F F"
C        2.94244472       0.01420411       0.06974410       0.01627378      -0.00042748       0.00418754
C        1.58523947      -0.45050003      -0.44302683       0.01109363       0.00242260       0.00625801
C        0.42743068       0.38531307       0.10171131       0.00083688       0.00033033      -0.00051207
C       -0.92909062      -0.11074362      -0.37948525      -0.00444845      -0.00584017      -0.00203928
C       -2.08698159       0.73454658       0.13756723      -0.00064504       0.00117797       0.00401294
O       -3.30959357       0.13748183      -0.29162546       0.00836551       0.00339699       0.00011355
H        3.74108550      -0.53096572      -0.43844962      -0.00671183      -0.00595015       0.00276788
H        3.04238491      -0.16903781       1.14453345      -0.00513268       0.00427423      -0.01075603
H        3.09523332       1.08289383      -0.11068144      -0.00717324       0.00103620      -0.00618699
H        1.56060989      -0.40276707      -1.53871227       0.00175293       0.00246801       0.00615320
H        1.42087987      -1.49886571      -0.16588184       0.00112730       0.00290808       0.00112282
H        0.55538988       1.43420432      -0.20190275      -0.00281002       0.00307401      -0.00256631
H        0.43760960       0.36687009       1.20086180       0.00403064       0.00188360       0.00218070
H       -0.94141062      -0.11517384      -1.47996099      -0.00698388       0.00741674      -0.00338177
H       -1.05614022      -1.15441178      -0.05392045      -0.00088046      -0.00832315      -0.00204152
H       -2.00702138       1.75571755      -0.26423810       0.00231561      -0.00046456      -0.00203449
H       -2.05326137       0.77329522       1.23754483      -0.00485072       0.00378537       0.00383356
H       -4.03462733       0.75289564      -0.10445060      -0.00041796       0.00307247       0.00496130
C       -4.68451055      -7.85073899       2.53910404       0.00190230       0.00143354       0.00065310
C       -4.94479762      -6.38952399       2.88158609      -0.00162692       0.00932634      -0.00043672
C       -4.56892479      -5.43972073       1.74331534       0.00690761       0.00082659      -0.00946310
C       -4.77387262      -3.97326221       2.09371874       0.00326498      -0.00690697       0.00413646
C       -4.27348600      -3.02754564       0.99674037      -0.00231141      -0.00201356       0.00707209
O       -4.35951346      -1.70490523       1.44321628       0.00027823       0.00732243      -0.00134242
H       -4.93001970      -8.48487343       3.39407239      -0.00166344       0.00765055      -0.00593209
H       -5.29526730      -8.17549486       1.69066951       0.00200154       0.00790426       0.00847945
H       -3.63191662      -8.01474060       2.28704049      -0.00777687      -0.00497501       0.00101186
H       -4.37096525      -6.10476594       3.77184935      -0.00204946      -0.00456860       0.00342232
H       -6.00404262      -6.24210820       3.12248937      -0.00903805      -0.00455783      -0.00426196
H       -3.51502744      -5.59613202       1.47212945       0.00352654       0.00611153      -0.00748326
H       -5.16721092      -5.67980845       0.85264114       0.00124627       0.00504133       0.00097109
H       -4.25359425      -3.75211385       3.03733129       0.00105514       0.00633255       0.00004525
H       -5.84616419      -3.78930407       2.25931676       0.00461057      -0.00725329       0.00263557
H       -3.22971884      -3.28889033       0.74964815      -0.00476258      -0.01177765      -0.00385591
H       -4.89287517      -3.17327096       0.09511773      -0.00356271      -0.01803437       0.00223544
H       -3.99241594      -1.10905252       0.74984363       0.00225623      -0.00810343      -0.00396045
36
Properties=species:S:1:pos:R:3:forces:R:3 dist=1.8620306864886793 energy=-193.89540100097656 stress="-inf -inf inf -inf inf -inf inf -inf inf" free_energy=-193.89540100097656 pbc="F F F"
C        2.98119673       0.08494830       0.01063792       0.01627378      -0.00042748       0.00418754
C        1.62399148      -0.37975584      -0.50213301       0.01109363       0.00242260       0.00625801
C        0.46618269       0.45605726       0.04260513       0.00083688       0.00033033      -0.00051207
C       -0.89033861      -0.03999943      -0.43859143      -0.00444845      -0.00584017      -0.00203928
C       -2.04822958       0.80529077       0.07846105      -0.00064504       0.00117797       0.00401294
O       -3.27084156       0.20822602      -0.35073164       0.00836551       0.00339699       0.00011355
H        3.77983751      -0.46022153      -0.49755580      -0.00671183      -0.00595015       0.00276788
H        3.08113692      -0.09829362       1.08542727      -0.00513268       0.00427423      -0.01075603
H        3.13398533       1.15363802      -0.16978762      -0.00717324       0.00103620      -0.00618699
H        1.59936190      -0.33202288      -1.59781845       0.00175293       0.00246801       0.00615320
H        1.45963188      -1.42812152      -0.22498802       0.00112730       0.00290808       0.00112282
H        0.59414189       1.50494851      -0.26100893      -0.00281002       0.00307401      -0.00256631
H        0.47636161       0.43761428       1.14175562       0.00403064       0.00188360       0.00218070
H       -0.90265861      -0.04442965      -1.53906717      -0.00698388       0.00741674      -0.00338177
H       -1.01738821      -1.08366759      -0.11302663      -0.00088046      -0.00832315      -0.00204152
H       -1.96826937       1.82646174      -0.32334428       0.00231561      -0.00046456      -0.00203449
H       -2.01450936       0.84403941       1.17843865      -0.00485072       0.00378537       0.00383356
H       -3.99587532       0.82363983      -0.16355678      -0.00041796       0.00307247       0.00496130
C       -4.68451055      -7.85073899       2.53910404       0.00190230       0.00143354       0.00065310
C       -4.94479762      -6.38952399       2.88158609      -0.00162692       0.00932634      -0.00043672
C       -4.56892479      -5.43972073       1.74331534       0.00690761       0.00082659      -0.00946310
C       -4.77387262      -3.97326221       2.09371874       0.00326498      -0.00690697       0.00413646
C       -4.27348600      -3.02754564       0.99674037      -0.00231141      -0.00201356       0.00707209
O       -4.35951346      -1.70490523       1.44321628       0.00027823       0.00732243      -0.00134242
H       -4.93001970      -8.48487343       3.39407239      -0.00166344       0.00765055      -0.00593209
H       -5.29526730      -8.17549486       1.69066951       0.00200154       0.00790426       0.00847945
H       -3.63191662      -8.01474060       2.28704049      -0.00777687      -0.00497501       0.00101186
H       -4.37096525      -6.10476594       3.77184935      -0.00204946      -0.00456860       0.00342232
H       -6.00404262      -6.24210820       3.12248937      -0.00903805      -0.00455783      -0.00426196
H       -3.51502744      -5.59613202       1.47212945       0.00352654       0.00611153      -0.00748326
H       -5.16721092      -5.67980845       0.85264114       0.00124627       0.00504133       0.00097109
H       -4.25359425      -3.75211385       3.03733129       0.00105514       0.00633255       0.00004525
H       -5.84616419      -3.78930407       2.25931676       0.00461057      -0.00725329       0.00263557
H       -3.22971884      -3.28889033       0.74964815      -0.00476258      -0.01177765      -0.00385591
H       -4.89287517      -3.17327096       0.09511773      -0.00356271      -0.01803437       0.00223544
H       -3.99241594      -1.10905252       0.74984363       0.00225623      -0.00810343      -0.00396045
36
Properties=species:S:1:pos:R:3:forces:R:3 dist=1.9620306864886794 energy=-193.89540100097656 stress="-inf -inf inf -inf inf -inf inf -inf inf" free_energy=-193.89540100097656 pbc="F F F"
C        3.01994875       0.15569249      -0.04846827       0.01627378      -0.00042748       0.00418754
C        1.66274350      -0.30901165      -0.56123920       0.01109363       0.00242260       0.00625801
C        0.50493471       0.52680145      -0.01650106       0.00083688       0.00033033      -0.00051207
C       -0.85158659       0.03074476      -0.49769762      -0.00444845      -0.00584017      -0.00203928
C       -2.00947756       0.87603496       0.01935486      -0.00064504       0.00117797       0.00401294
O       -3.23208954       0.27897021      -0.40983783       0.00836551       0.00339699       0.00011355
H        3.81858953      -0.38947734      -0.55666199      -0.00671183      -0.00595015       0.00276788
H        3.11988894      -0.02754943       1.02632108      -0.00513268       0.00427423      -0.01075603
H        3.17273735       1.22438221      -0.22889381      -0.00717324       0.00103620      -0.00618699
H        1.63811392      -0.26127869      -1.65692464       0.00175293       0.00246801       0.00615320
H        1.49838390      -1.35737733      -0.28409421       0.00112730       0.00290808       0.00112282
H        0.63289391       1.57569270      -0.32011512      -0.00281002       0.00307401      -0.00256631
H        0.51511363       0.50835847       1.08264943       0.00403064       0.00188360       0.00218070
H       -0.86390659       0.02631454      -1.59817336      -0.00698388       0.00741674      -0.00338177
H       -0.97863619      -1.01292340      -0.17213282      -0.00088046      -0.00832315      -0.00204152
H       -1.92951735       1.89720593      -0.38245047       0.00231561      -0.00046456      -0.00203449
H       -1.97575734       0.91478360       1.11933246      -0.00485072       0.00378537       0.00383356
H       -3.95712330       0.89438402      -0.22266297      -0.00041796       0.00307247       0.00496130
C       -4.68451055      -7.85073899       2.53910404       0.00190230       0.00143354       0.00065310