------------------------------------------------------------
          Invoking FHI-aims ...

          When using FHI-aims, please cite the following reference:

            Volker Blum, Ralf Gehrke, Felix Hanke, Paula Havu,
            Ville Havu, Xinguo Ren, Karsten Reuter, and Matthias Scheffler,
            'Ab Initio Molecular Simulations with Numeric Atom-Centered Orbitals',
            Computer Physics Communications 180, 2175-2196 (2009)

          In addition, many other developments in FHI-aims are likely important for
          your particular application. If so, please cite them. A partial list of references
          is written at the end of this file. Thank you for giving credit to the authors
          of these developments.

          For general information about FHI-aims please find us at

            https://fhi-aims.org

          Online tutorials can be found at

            https://fhi-aims-club.gitlab.io/tutorials/tutorials-overview/

          For any questions about FHI-aims, please visit our slack channel at

            https://fhi-aims.slack.com

          and our main development and support site at

            https://aims-git.rz-berlin.mpg.de .

          The latter site, in particular, has a wiki to collect information, as well
          as an issue tracker to log discussions, suggest improvements, and report issues
          or bugs. https://aims-git.rz-berlin.mpg.de is also the main development site
          of the project and all new and updated code versions can be obtained there.
          Please send an email to aims-coordinators@fhi-berlin.mpg.de and we will add
          you to these sites. They are for you and everyone is welcome there.

------------------------------------------------------------



  Date     :  20250628, Time     :  192031.837
  Time zero on CPU 1             :   0.602389500000000E+01  s.
  Internal wall clock time zero  :           520370431.837  s.

  FHI-aims created a unique identifier for this run for later identification
  aims_uuid : 3165C8AB-BABB-4188-A5FF-8D30740181B5

  Build configuration of the current instance of FHI-aims
  -------------------------------------------------------
  FHI-aims version      : 250403
  Commit number         : 316072d87
  CMake host system     : Linux-5.14.21-150400.24.46_12.0.70-cray_shasta_c
  CMake version         : 3.20.4
  Fortran compiler      : /opt/cray/pe/craype/2.7.19/bin/ftn (GNU) version 11.2.0
  Fortran compiler flags: -O2 -fPIC -fallow-argument-mismatch -ffree-line-length-none
  C compiler            : /opt/cray/pe/craype/2.7.19/bin/cc (GNU) version 11.2.0
  C compiler flags      : -O2
  C++ compiler          : /opt/cray/pe/gcc/11.2.0/bin/c++ (GNU) version 11.2.0
  C++ compiler flags    : -O2
  HIP compiler          :
  HIP compiler flags    :
  HIP GPU arch          :
  Using MPI
  Using ScaLAPACK
  Using LibXC
  Using i-PI
  Using RLSY
  Linking against:

  Using      128 parallel tasks.
  Task        0 on host nid002152 reporting.
  Task        1 on host nid002152 reporting.
  Task        2 on host nid002152 reporting.
  Task        3 on host nid002152 reporting.
  Task        4 on host nid002152 reporting.
  Task        5 on host nid002152 reporting.
  Task        6 on host nid002152 reporting.
  Task        7 on host nid002152 reporting.
  Task        8 on host nid002152 reporting.
  Task        9 on host nid002152 reporting.
  Task       10 on host nid002152 reporting.
  Task       11 on host nid002152 reporting.
  Task       12 on host nid002152 reporting.
  Task       13 on host nid002152 reporting.
  Task       14 on host nid002152 reporting.
  Task       15 on host nid002152 reporting.
  Task       16 on host nid002152 reporting.
  Task       17 on host nid002152 reporting.
  Task       18 on host nid002152 reporting.
  Task       19 on host nid002152 reporting.
  Task       20 on host nid002152 reporting.
  Task       21 on host nid002152 reporting.
  Task       22 on host nid002152 reporting.
  Task       23 on host nid002152 reporting.
  Task       24 on host nid002152 reporting.
  Task       25 on host nid002152 reporting.
  Task       26 on host nid002152 reporting.
  Task       27 on host nid002152 reporting.
  Task       28 on host nid002152 reporting.
  Task       29 on host nid002152 reporting.
  Task       30 on host nid002152 reporting.
  Task       31 on host nid002152 reporting.
  Task       32 on host nid002152 reporting.
  Task       33 on host nid002152 reporting.
  Task       34 on host nid002152 reporting.
  Task       35 on host nid002152 reporting.
  Task       36 on host nid002152 reporting.
  Task       37 on host nid002152 reporting.
  Task       38 on host nid002152 reporting.
  Task       39 on host nid002152 reporting.
  Task       40 on host nid002152 reporting.
  Task       41 on host nid002152 reporting.
  Task       42 on host nid002152 reporting.
  Task       43 on host nid002152 reporting.
  Task       44 on host nid002152 reporting.
  Task       45 on host nid002152 reporting.
  Task       46 on host nid002152 reporting.
  Task       47 on host nid002152 reporting.
  Task       48 on host nid002152 reporting.
  Task       49 on host nid002152 reporting.
  Task       50 on host nid002152 reporting.
  Task       51 on host nid002152 reporting.
  Task       52 on host nid002152 reporting.
  Task       53 on host nid002152 reporting.
  Task       54 on host nid002152 reporting.
  Task       55 on host nid002152 reporting.
  Task       56 on host nid002152 reporting.
  Task       57 on host nid002152 reporting.
  Task       58 on host nid002152 reporting.
  Task       59 on host nid002152 reporting.
  Task       60 on host nid002152 reporting.
  Task       61 on host nid002152 reporting.
  Task       62 on host nid002152 reporting.
  Task       63 on host nid002152 reporting.
  Task       64 on host nid002152 reporting.
  Task       65 on host nid002152 reporting.
  Task       66 on host nid002152 reporting.
  Task       67 on host nid002152 reporting.
  Task       68 on host nid002152 reporting.
  Task       69 on host nid002152 reporting.
  Task       70 on host nid002152 reporting.
  Task       71 on host nid002152 reporting.
  Task       72 on host nid002152 reporting.
  Task       73 on host nid002152 reporting.
  Task       74 on host nid002152 reporting.
  Task       75 on host nid002152 reporting.
  Task       76 on host nid002152 reporting.
  Task       77 on host nid002152 reporting.
  Task       78 on host nid002152 reporting.
  Task       79 on host nid002152 reporting.
  Task       80 on host nid002152 reporting.
  Task       81 on host nid002152 reporting.
  Task       82 on host nid002152 reporting.
  Task       83 on host nid002152 reporting.
  Task       84 on host nid002152 reporting.
  Task       85 on host nid002152 reporting.
  Task       86 on host nid002152 reporting.
  Task       87 on host nid002152 reporting.
  Task       88 on host nid002152 reporting.
  Task       89 on host nid002152 reporting.
  Task       90 on host nid002152 reporting.
  Task       91 on host nid002152 reporting.
  Task       92 on host nid002152 reporting.
  Task       93 on host nid002152 reporting.
  Task       94 on host nid002152 reporting.
  Task       95 on host nid002152 reporting.
  Task       96 on host nid002152 reporting.
  Task       97 on host nid002152 reporting.
  Task       98 on host nid002152 reporting.
  Task       99 on host nid002152 reporting.
  Task      100 on host nid002152 reporting.
  Task      101 on host nid002152 reporting.
  Task      102 on host nid002152 reporting.
  Task      103 on host nid002152 reporting.
  Task      104 on host nid002152 reporting.
  Task      105 on host nid002152 reporting.
  Task      106 on host nid002152 reporting.
  Task      107 on host nid002152 reporting.
  Task      108 on host nid002152 reporting.
  Task      109 on host nid002152 reporting.
  Task      110 on host nid002152 reporting.
  Task      111 on host nid002152 reporting.
  Task      112 on host nid002152 reporting.
  Task      113 on host nid002152 reporting.
  Task      114 on host nid002152 reporting.
  Task      115 on host nid002152 reporting.
  Task      116 on host nid002152 reporting.
  Task      117 on host nid002152 reporting.
  Task      118 on host nid002152 reporting.
  Task      119 on host nid002152 reporting.
  Task      120 on host nid002152 reporting.
  Task      121 on host nid002152 reporting.
  Task      122 on host nid002152 reporting.
  Task      123 on host nid002152 reporting.
  Task      124 on host nid002152 reporting.
  Task      125 on host nid002152 reporting.
  Task      126 on host nid002152 reporting.
  Task      127 on host nid002152 reporting.

  Obtaining array dimensions for all initial allocations:
  
  -----------------------------------------------------------------------
  Parsing control.in (first pass over file, find array dimensions only).
  The contents of control.in will be repeated verbatim below
  unless switched off by setting 'verbatim_writeout .false.' .
  in the first line of control.in .
  -----------------------------------------------------------------------
  
  #===============================================================================
  # Created using the Atomic Simulation Environment (ASE)
  
  # Sat Jun 28 19:20:28 2025
  
  #===============================================================================
  xc                                 PBE0
  output_level                       full
  relativistic                       atomic_zora scalar
  occupation_type                    gaussian 0.01
  mixer                              pulay
  n_max_pulay                        10
  KS_method                          parallel
  RI_method                          LVL
  collect_eigenvectors               .true.
  density_update_method              density_matrix
  atomic_solver_xc                   PBE
  basis_threshold                    1e-05
  override_illconditioning           .true.
  override_initial_charge_check      .true.
  use_2d_corr                        .false.
  charge                             -0.0
  #===============================================================================
  
  ################################################################################
  #
  #  FHI-aims code project
  # Igor Ying Zhang and Xinguo Ren, Fritz Haber Institute Berlin, 2012
  #
  #  Suggested "NAO-VCC-3Z" defaults for C atom (to be pasted into control.in file)
  #
  #  Please cite:
  #
  #  Igor Ying Zhang, Xinguo Ren, Patrick Rinke, Volker Blum, and Matthias Scheffler,
  #  "Numeric atom-centered-orbital basis sets with valence-correlation consistency from H to Ar"
  #  New Journal of Physics 15, 123033 (2013).
  #  http://dx.doi.org/10.1088/1367-2630/15/12/123033
  #
  ################################################################################
    species        C
  #     set basis set reference for FHI-aims output
      cite_reference NAO-VCC-2013
  #     global species definitions
      nucleus             6
      mass                12.0107
  #
      l_hartree           6
  #
      cut_pot             4.0  2.0  1.0
      basis_dep_cutoff    0e-4
  #
      radial_base         34 7.0
      radial_multiplier   2
      angular_grids       specified
        division   0.2187   50
        division   0.4416  110
        division   0.6335  194
        division   0.7727  302
        division   0.8772  434
        division   0.9334  590
  #      division   0.9924  770
  #      division   1.0230  974
  #      division   1.5020 1202
  #      outer_grid  974
        outer_grid  770
  #      outer_grid  434
  ################################################################################
  #
  #  Definition of "minimal" basis
  #
  ################################################################################
  #     valence basis states
      valence      2  s   2.
      valence      2  p   2.
  #     ion occupancy
      ion_occ      2  s   1.
      ion_occ      2  p   1.
  ################################################################################
  
   basis_acc              1e-04
  #============================================
  # Optimization in      C for       NAO-VCC-3Z
  #============================================
  # (sp) correlation set
   hydro     1     s      1.80690099
   hydro     1     s      3.25966754
   hydro     2     p      1.97404286
   hydro     2     p      3.16616778
  # polarization set
   hydro     3     d      5.89063938
   hydro     3     d      6.67716137
   hydro     4     f     10.14967498
  # (sp) enhanced minimal set
   hydro     1     s      6.77306992
   hydro     1     s     13.85913422
   hydro     2     p      3.64746093
  ################################################################################
  #
  #  FHI-aims code project
  # Igor Ying Zhang and Xinguo Ren, Fritz Haber Institute Berlin, 2012
  #
  #  Suggested "NAO-VCC-3Z" defaults for O atom (to be pasted into control.in file)
  #
  #  Please cite:
  #
  #  Igor Ying Zhang, Xinguo Ren, Patrick Rinke, Volker Blum, and Matthias Scheffler,
  #  "Numeric atom-centered-orbital basis sets with valence-correlation consistency from H to Ar"
  #  New Journal of Physics 15, 123033 (2013).
  #  http://dx.doi.org/10.1088/1367-2630/15/12/123033
  #
  ################################################################################
    species        O
  #     set basis set reference for FHI-aims output
      cite_reference NAO-VCC-2013
  #     global species definitions
      nucleus             8
      mass                15.9994
  #
      l_hartree           6
  #
      cut_pot             4.0  2.0  1.0
      basis_dep_cutoff    0e-4
  #
      radial_base         36 7.0
      radial_multiplier   2
      angular_grids       specified
        division   0.1817   50
        division   0.3417  110
        division   0.4949  194
        division   0.6251  302
        division   0.8014  434
        division   0.8507  590
  #      division   0.8762  770
  #      division   0.9023  974
  #      division   1.2339 1202
  #      outer_grid 974
        outer_grid 770
  #      outer_grid  434
  ################################################################################
  #
  #  Definition of "minimal" basis
  #
  ################################################################################
  #     valence basis states
      valence      2  s   2.
      valence      2  p   4.
  #     ion occupancy
      ion_occ      2  s   1.
      ion_occ      2  p   3.
  ################################################################################
  
   basis_acc              1e-04
  #============================================
  # Optimization in      O for       NAO-VCC-3Z
  #============================================
  # (sp) correlation set
   hydro     1     s      1.84877109
   hydro     1     s      3.09577821
   hydro     2     p      2.44895734
   hydro     2     p      5.85722578
  # polarization set
   hydro     3     d      8.53701653
   hydro     3     d      8.96275978
   hydro     4     f     14.09619628
  # (sp) enhanced minimal basis
   hydro     1     s      3.62165559
   hydro     1     s      5.97272514
   hydro     2     p      6.29404180
  ################################################################################
  #
  #  FHI-aims code project
  #  Igor Ying Zhang and Xinguo Ren, Fritz Haber Institute Berlin, 2012
  #
  #  Suggested "NAO-VCC-3Z" defaults for H atom (to be pasted into control.in file)
  #
  #  Please cite:
  #
  #  Igor Ying Zhang, Xinguo Ren, Patrick Rinke, Volker Blum, and Matthias Scheffler,
  #  "Numeric atom-centered-orbital basis sets with valence-correlation consistency from H to Ar"
  #  New Journal of Physics 15, 123033 (2013).
  #  http://dx.doi.org/10.1088/1367-2630/15/12/123033
  #
  ################################################################################
    species        H
  #     set basis set reference for FHI-aims output
      cite_reference NAO-VCC-2013
  #     global species definitions
      nucleus             1
      mass                1.00794
  #
      l_hartree           6
  #
      cut_pot             4.0  2.0  1.0
      basis_dep_cutoff    0e-4
  #
      radial_base         24 7.0
      radial_multiplier   2
      angular_grids       specified
        division   0.1930   50
        division   0.3175  110
        division   0.4293  194
        division   0.5066  302
        division   0.5626  434
        division   0.5922  590
  #      division   0.6227  974
  #      division   0.6868 1202
        outer_grid  770
  #      outer_grid  434
  ################################################################################
  #
  #  Definition of "minimal" basis
  #
  ################################################################################
  #     valence basis states
      valence      1  s   1.
  #     ion occupancy
      ion_occ      1  s   0.5
  ################################################################################
  
  
   basis_acc              1e-04
  #============================================
  # Optimization in      H for       NAO-VCC-3Z
  #============================================
  # (sp) correlation set
   hydro     1     s      1.21957223
   hydro     1     s      1.79015338
   hydro     2     p      3.43862914
   hydro     2     p      3.48684723
  # polarization set
   hydro     3     d      6.20828695
  # (sp) enhanced minimal set
   hydro     1     s      2.62768292
  
  -----------------------------------------------------------------------
  Completed first pass over input file control.in .
  -----------------------------------------------------------------------
  
  
  -----------------------------------------------------------------------
  Parsing geometry.in (first pass over file, find array dimensions only).
  The contents of geometry.in will be repeated verbatim below
  unless switched off by setting 'verbatim_writeout .false.' .
  in the first line of geometry.in .
  -----------------------------------------------------------------------
  
  #===============================================================================
  # Created using the Atomic Simulation Environment (ASE)
  
  # Sat Jun 28 19:20:28 2025
  
  #=======================================================
  atom 3.1749567999999999 0.4386692500000000 -0.2848930000000000 C
  atom 1.8177515500000001 -0.0260348900000000 -0.7976639300000000 C
  atom 0.6599427600000000 0.8097782100000001 -0.2529257900000000 C
  atom -0.6965785400000000 0.3137215200000000 -0.7341223500000000 C
  atom -1.8544695099999999 1.1590117200000001 -0.2170698700000000 C
  atom -3.0770814899999999 0.5619469700000000 -0.6462625600000000 O
  atom 3.9735975799999999 -0.1065005800000000 -0.7930867200000000 H
  atom 3.2748969899999998 0.2554273300000000 0.7898963500000000 H
  atom 3.3277454000000000 1.5073589700000001 -0.4653185400000000 H
  atom 1.7931219700000001 0.0216980700000000 -1.8933493699999999 H
  atom 1.6533919500000001 -1.0744005700000001 -0.5205189400000000 H
  atom 0.7879019600000000 1.8586694600000000 -0.5565398499999999 H
  atom 0.6701216800000001 0.7913352299999999 0.8462247000000001 H
  atom -0.7088985400000000 0.3092913000000000 -1.8345980900000001 H
  atom -0.8236281400000000 -0.7299466400000000 -0.4085575500000000 H
  atom -1.7745093000000001 2.1801826900000001 -0.6188752000000000 H
  atom -1.8207492900000000 1.1977603600000000 0.8829077300000000 H
  atom -3.8021152499999999 1.1773607800000001 -0.4590877000000000 H
  atom -4.6845105499999997 -7.8507389900000000 2.5391040399999998 C
  atom -4.9447976200000001 -6.3895239899999998 2.8815860899999999 C
  atom -4.5689247899999996 -5.4397207300000003 1.7433153400000001 C
  atom -4.7738726199999997 -3.9732622100000001 2.0937187399999999 C
  atom -4.2734860000000001 -3.0275456400000000 0.9967403700000000 C
  atom -4.3595134599999996 -1.7049052300000000 1.4432162799999999 O
  atom -4.9300196999999999 -8.4848734300000004 3.3940723899999998 H
  atom -5.2952672999999999 -8.1754948600000006 1.6906695100000000 H
  atom -3.6319166200000002 -8.0147405999999997 2.2870404899999999 H
  atom -4.3709652500000002 -6.1047659400000001 3.7718493500000001 H
  atom -6.0040426199999999 -6.2421081999999997 3.1224893699999998 H
  atom -3.5150274399999999 -5.5961320199999998 1.4721294500000000 H
  atom -5.1672109199999996 -5.6798084500000003 0.8526411400000000 H
  atom -4.2535942499999999 -3.7521138500000002 3.0373312900000000 H
  atom -5.8461641899999996 -3.7893040700000000 2.2593167599999999 H
  atom -3.2297188399999999 -3.2888903300000001 0.7496481500000000 H
  atom -4.8928751699999999 -3.1732709600000000 0.0951177300000000 H
  atom -3.9924159399999999 -1.1090525200000001 0.7498436300000000 H
  
  -----------------------------------------------------------------------
  Completed first pass over input file geometry.in .
  -----------------------------------------------------------------------
  

  Basic array size parameters:
  | Number of species                 :        3
  | Number of atoms                   :       36
  | Max. basis fn. angular momentum   :        3
  | Max. atomic/ionic basis occupied n:        2
  | Max. number of basis fn. types    :        2
  | Max. radial fns per species/type  :       10
  | Max. logarithmic grid size        :     1301
  | Max. radial integration grid size :       73
  | Max. angular integration grid size:      770
  | Max. angular grid division number :        8
  | Radial grid for Hartree potential :     1301
  | Number of spin channels           :        1

  Definition of standardized fundamental physical constants in this FHI-aims run:
  | Using the set of values used in FHI-aims up to 2024, which combines values from
  | different CODATA sets - see constants.f90.
  | Use the 'codata' keyword in control.in to change this selection.

  Memory overcommitment is allowed on your operating system.

------------------------------------------------------------
          Reading file control.in.
------------------------------------------------------------
  XC: Using hybrid-PBE0 functionals.
  Requested output level: full
  Scalar relativistic treatment of kinetic energy: on-site free-atom approximation to ZORA.
  Occupation type: Gaussian broadening, width =   0.100000E-01 eV.
  Using pulay charge density mixing.
  Pulay mixing - number of memorized iterations:   10
  Kohn-Sham electronic structure solved by the ELSI library.
  The 'LVL' version of RI (resolution of identity) technique is used.
  ** This is a localized expansion of all basis function products.
     Its intended use are Hartree-Fock and hybrid functionals.
     For RPA, MP2, GW, etc., LVL is not yet as accurate. In those cases, check carefully.
  Atomic Solver XC: Using user-defined functional for generating the minimal NAO basis functions.
  Note that only the following functionals are available: kli, pz-lda, pw-lda, vwn, vwn-gauss, pw91_gga, pbe, rpbe, revpbe, pbeint, blyp.
  Threshold for basis singularities:  0.1000E-04
  override_illconditioning: Explicitly overriding any built-in checks for an ill-conditioned overlap matrix.
** WARNING:
  ***  If you use this flag, you should really know what you are doing.
** END OF WARNING
** WARNING:
  *** DO NOT keep this flag set by default in all your control.in files.
** END OF WARNING
  Old 1D distribution for correlation code.
  Charge =  -0.000000E+00: Neutral system requested explicitly.

  Reading configuration options for species C                   .
  | Found nuclear charge :   6.0000
  | Found atomic mass :    12.010700000000000      amu
  | Found l_max for Hartree potential  :   6
  | Found cutoff potl. onset [A], width [A], scale factor :    4.00000    2.00000    1.00000
  | Threshold for basis-dependent cutoff potential is   0.000000E+00
  | Found data for basic radial integration grid :    34 points, outermost radius =    7.000 A
  | Found multiplier for basic radial grid :   2
  | Found angular grid specification: user-specified.
  | Specified grid contains     7 separate shells.
  | Check grid settings after all constraints further below.
  | Found free-atom valence shell :  2 s   2.000
  | Found free-atom valence shell :  2 p   2.000
  | No ionic wave fns used. Skipping ion_occ.
  | No ionic wave fns used. Skipping ion_occ.
  | Found basis singularity cutoff : 0.1000E-03
  | Found hydrogenic basis function :  1 s   1.807
  | Found hydrogenic basis function :  1 s   3.260
  | Found hydrogenic basis function :  2 p   1.974
  | Found hydrogenic basis function :  2 p   3.166
  | Found hydrogenic basis function :  3 d   5.891
  | Found hydrogenic basis function :  3 d   6.677
  | Found hydrogenic basis function :  4 f  10.150
  | Found hydrogenic basis function :  1 s   6.773
  | Found hydrogenic basis function :  1 s  13.859
  | Found hydrogenic basis function :  2 p   3.647
 | Encountered keyword species, ending the description of species C                   .
  Species C                   : Missing cutoff potential type.
  Defaulting to exp(1/x)/(1-x)^2 type cutoff potential.
  Species C : No 'logarithmic' tag. Using default grid for free atom:
  | Default logarithmic grid data [bohr] : 0.1000E-03 0.1000E+03 0.1012E+01
  Species C                   : Using default innermost maximum threshold i_radial=  2 for radial functions.
  Species C                   : Default cutoff onset for free atom density etc. : 0.40000000E+01 AA.
  Species C                   : Basic radial grid will be enhanced according to radial_multiplier =   2, to contain    69 grid points.

  Reading configuration options for species O                   .
  | Found nuclear charge :   8.0000
  | Found atomic mass :    15.999400000000000      amu
  | Found l_max for Hartree potential  :   6
  | Found cutoff potl. onset [A], width [A], scale factor :    4.00000    2.00000    1.00000
  | Threshold for basis-dependent cutoff potential is   0.000000E+00
  | Found data for basic radial integration grid :    36 points, outermost radius =    7.000 A
  | Found multiplier for basic radial grid :   2
  | Found angular grid specification: user-specified.
  | Specified grid contains     7 separate shells.
  | Check grid settings after all constraints further below.
  | Found free-atom valence shell :  2 s   2.000
  | Found free-atom valence shell :  2 p   4.000
  | No ionic wave fns used. Skipping ion_occ.
  | No ionic wave fns used. Skipping ion_occ.
  | Found basis singularity cutoff : 0.1000E-03
  | Found hydrogenic basis function :  1 s   1.849
  | Found hydrogenic basis function :  1 s   3.096
  | Found hydrogenic basis function :  2 p   2.449
  | Found hydrogenic basis function :  2 p   5.857
  | Found hydrogenic basis function :  3 d   8.537
  | Found hydrogenic basis function :  3 d   8.963
  | Found hydrogenic basis function :  4 f  14.096
  | Found hydrogenic basis function :  1 s   3.622
  | Found hydrogenic basis function :  1 s   5.973
  | Found hydrogenic basis function :  2 p   6.294
 | Encountered keyword species, ending the description of species O                   .
  Species O                   : Missing cutoff potential type.
  Defaulting to exp(1/x)/(1-x)^2 type cutoff potential.
  Species O : No 'logarithmic' tag. Using default grid for free atom:
  | Default logarithmic grid data [bohr] : 0.1000E-03 0.1000E+03 0.1012E+01
  Species O                   : Using default innermost maximum threshold i_radial=  2 for radial functions.
  Species O                   : Default cutoff onset for free atom density etc. : 0.40000000E+01 AA.
  Species O                   : Basic radial grid will be enhanced according to radial_multiplier =   2, to contain    73 grid points.

  Reading configuration options for species H                   .
  | Found nuclear charge :   1.0000
  | Found atomic mass :    1.0079400000000001      amu
  | Found l_max for Hartree potential  :   6
  | Found cutoff potl. onset [A], width [A], scale factor :    4.00000    2.00000    1.00000
  | Threshold for basis-dependent cutoff potential is   0.000000E+00
  | Found data for basic radial integration grid :    24 points, outermost radius =    7.000 A
  | Found multiplier for basic radial grid :   2
  | Found angular grid specification: user-specified.
  | Specified grid contains     7 separate shells.
  | Check grid settings after all constraints further below.
  | Found free-atom valence shell :  1 s   1.000
  | No ionic wave fns used. Skipping ion_occ.
  | Found basis singularity cutoff : 0.1000E-03
  | Found hydrogenic basis function :  1 s   1.220
  | Found hydrogenic basis function :  1 s   1.790
  | Found hydrogenic basis function :  2 p   3.439
  | Found hydrogenic basis function :  2 p   3.487
  | Found hydrogenic basis function :  3 d   6.208
  | Found hydrogenic basis function :  1 s   2.628
  Species H                   : Missing cutoff potential type.
  Defaulting to exp(1/x)/(1-x)^2 type cutoff potential.
  Species H : No 'logarithmic' tag. Using default grid for free atom:
  | Default logarithmic grid data [bohr] : 0.1000E-03 0.1000E+03 0.1012E+01
  Species H                   : Using default innermost maximum threshold i_radial=  2 for radial functions.
  Species H                   : Default cutoff onset for free atom density etc. : 0.40000000E+01 AA.
  Species H                   : Basic radial grid will be enhanced according to radial_multiplier =   2, to contain    49 grid points.

  Finished reading input file 'control.in'.

------------------------------------------------------------


------------------------------------------------------------
          Reading geometry description geometry.in.
------------------------------------------------------------
  | The smallest distance between any two atoms is         0.96924844 AA.
  | The first atom of this pair is atom number                      6 .
  | The second atom of this pair is atom number                    18 .
  Input structure read successfully.
  The structure contains       36 atoms,  and a total of        100.000 electrons.

  Input geometry:
  | No unit cell requested.
  | Atomic structure:
  |       Atom                x [A]            y [A]            z [A]
  |    1: Species C             3.17495680        0.43866925       -0.28489300
  |    2: Species C             1.81775155       -0.02603489       -0.79766393
  |    3: Species C             0.65994276        0.80977821       -0.25292579
  |    4: Species C            -0.69657854        0.31372152       -0.73412235
  |    5: Species C            -1.85446951        1.15901172       -0.21706987
  |    6: Species O            -3.07708149        0.56194697       -0.64626256
  |    7: Species H             3.97359758       -0.10650058       -0.79308672
  |    8: Species H             3.27489699        0.25542733        0.78989635
  |    9: Species H             3.32774540        1.50735897       -0.46531854
  |   10: Species H             1.79312197        0.02169807       -1.89334937
  |   11: Species H             1.65339195       -1.07440057       -0.52051894
  |   12: Species H             0.78790196        1.85866946       -0.55653985
  |   13: Species H             0.67012168        0.79133523        0.84622470
  |   14: Species H            -0.70889854        0.30929130       -1.83459809
  |   15: Species H            -0.82362814       -0.72994664       -0.40855755
  |   16: Species H            -1.77450930        2.18018269       -0.61887520
  |   17: Species H            -1.82074929        1.19776036        0.88290773
  |   18: Species H            -3.80211525        1.17736078       -0.45908770
  |   19: Species C            -4.68451055       -7.85073899        2.53910404
  |   20: Species C            -4.94479762       -6.38952399        2.88158609
  |   21: Species C            -4.56892479       -5.43972073        1.74331534
  |   22: Species C            -4.77387262       -3.97326221        2.09371874
  |   23: Species C            -4.27348600       -3.02754564        0.99674037
  |   24: Species O            -4.35951346       -1.70490523        1.44321628
  |   25: Species H            -4.93001970       -8.48487343        3.39407239
  |   26: Species H            -5.29526730       -8.17549486        1.69066951
  |   27: Species H            -3.63191662       -8.01474060        2.28704049
  |   28: Species H            -4.37096525       -6.10476594        3.77184935
  |   29: Species H            -6.00404262       -6.24210820        3.12248937
  |   30: Species H            -3.51502744       -5.59613202        1.47212945
  |   31: Species H            -5.16721092       -5.67980845        0.85264114
  |   32: Species H            -4.25359425       -3.75211385        3.03733129
  |   33: Species H            -5.84616419       -3.78930407        2.25931676
  |   34: Species H            -3.22971884       -3.28889033        0.74964815
  |   35: Species H            -4.89287517       -3.17327096        0.09511773
  |   36: Species H            -3.99241594       -1.10905252        0.74984363

  Slab Identifier: This is not a periodic structure.

  Finished reading input file 'geometry.in'.



  Consistency checks for stacksize environment parameter are next.

  | Maximum stacksize for task 0: unlimited
  | Maximum stacksize for task 1: unlimited
  | Maximum stacksize for task 2: unlimited
  | Maximum stacksize for task 3: unlimited
  | Maximum stacksize for task 4: unlimited
  | Maximum stacksize for task 5: unlimited
  | Maximum stacksize for task 6: unlimited
  | Maximum stacksize for task 7: unlimited
  | Maximum stacksize for task 8: unlimited
  | Maximum stacksize for task 9: unlimited
  | Maximum stacksize for task 10: unlimited
  | Maximum stacksize for task 11: unlimited
  | Maximum stacksize for task 12: unlimited
  | Maximum stacksize for task 13: unlimited
  | Maximum stacksize for task 14: unlimited
  | Maximum stacksize for task 15: unlimited
  | Maximum stacksize for task 16: unlimited
  | Maximum stacksize for task 17: unlimited
  | Maximum stacksize for task 18: unlimited
  | Maximum stacksize for task 19: unlimited
  | Maximum stacksize for task 20: unlimited
  | Maximum stacksize for task 21: unlimited
  | Maximum stacksize for task 22: unlimited
  | Maximum stacksize for task 23: unlimited
  | Maximum stacksize for task 24: unlimited
  | Maximum stacksize for task 25: unlimited
  | Maximum stacksize for task 26: unlimited
  | Maximum stacksize for task 27: unlimited
  | Maximum stacksize for task 28: unlimited
  | Maximum stacksize for task 29: unlimited
  | Maximum stacksize for task 30: unlimited
  | Maximum stacksize for task 31: unlimited
  | Maximum stacksize for task 32: unlimited
  | Maximum stacksize for task 33: unlimited
  | Maximum stacksize for task 34: unlimited
  | Maximum stacksize for task 35: unlimited
  | Maximum stacksize for task 36: unlimited
  | Maximum stacksize for task 37: unlimited
  | Maximum stacksize for task 38: unlimited
  | Maximum stacksize for task 39: unlimited
  | Maximum stacksize for task 40: unlimited
  | Maximum stacksize for task 41: unlimited
  | Maximum stacksize for task 42: unlimited
  | Maximum stacksize for task 43: unlimited
  | Maximum stacksize for task 44: unlimited
  | Maximum stacksize for task 45: unlimited
  | Maximum stacksize for task 46: unlimited
  | Maximum stacksize for task 47: unlimited
  | Maximum stacksize for task 48: unlimited
  | Maximum stacksize for task 49: unlimited
  | Maximum stacksize for task 50: unlimited
  | Maximum stacksize for task 51: unlimited
  | Maximum stacksize for task 52: unlimited
  | Maximum stacksize for task 53: unlimited
  | Maximum stacksize for task 54: unlimited
  | Maximum stacksize for task 55: unlimited
  | Maximum stacksize for task 56: unlimited
  | Maximum stacksize for task 57: unlimited
  | Maximum stacksize for task 58: unlimited
  | Maximum stacksize for task 59: unlimited
  | Maximum stacksize for task 60: unlimited
  | Maximum stacksize for task 61: unlimited
  | Maximum stacksize for task 62: unlimited
  | Maximum stacksize for task 63: unlimited
  | Maximum stacksize for task 64: unlimited
  | Maximum stacksize for task 65: unlimited
  | Maximum stacksize for task 66: unlimited
  | Maximum stacksize for task 67: unlimited
  | Maximum stacksize for task 68: unlimited
  | Maximum stacksize for task 69: unlimited
  | Maximum stacksize for task 70: unlimited
  | Maximum stacksize for task 71: unlimited
  | Maximum stacksize for task 72: unlimited
  | Maximum stacksize for task 73: unlimited
  | Maximum stacksize for task 74: unlimited
  | Maximum stacksize for task 75: unlimited
  | Maximum stacksize for task 76: unlimited
  | Maximum stacksize for task 77: unlimited
  | Maximum stacksize for task 78: unlimited
  | Maximum stacksize for task 79: unlimited
  | Maximum stacksize for task 80: unlimited
  | Maximum stacksize for task 81: unlimited
  | Maximum stacksize for task 82: unlimited
  | Maximum stacksize for task 83: unlimited
  | Maximum stacksize for task 84: unlimited
  | Maximum stacksize for task 85: unlimited
  | Maximum stacksize for task 86: unlimited
  | Maximum stacksize for task 87: unlimited
  | Maximum stacksize for task 88: unlimited
  | Maximum stacksize for task 89: unlimited
  | Maximum stacksize for task 90: unlimited
  | Maximum stacksize for task 91: unlimited
  | Maximum stacksize for task 92: unlimited
  | Maximum stacksize for task 93: unlimited
  | Maximum stacksize for task 94: unlimited
  | Maximum stacksize for task 95: unlimited
  | Maximum stacksize for task 96: unlimited
  | Maximum stacksize for task 97: unlimited
  | Maximum stacksize for task 98: unlimited
  | Maximum stacksize for task 99: unlimited
  | Maximum stacksize for task 100: unlimited
  | Maximum stacksize for task 101: unlimited
  | Maximum stacksize for task 102: unlimited
  | Maximum stacksize for task 103: unlimited
  | Maximum stacksize for task 104: unlimited
  | Maximum stacksize for task 105: unlimited
  | Maximum stacksize for task 106: unlimited
  | Maximum stacksize for task 107: unlimited
  | Maximum stacksize for task 108: unlimited
  | Maximum stacksize for task 109: unlimited
  | Maximum stacksize for task 110: unlimited
  | Maximum stacksize for task 111: unlimited
  | Maximum stacksize for task 112: unlimited
  | Maximum stacksize for task 113: unlimited
  | Maximum stacksize for task 114: unlimited
  | Maximum stacksize for task 115: unlimited
  | Maximum stacksize for task 116: unlimited
  | Maximum stacksize for task 117: unlimited
  | Maximum stacksize for task 118: unlimited
  | Maximum stacksize for task 119: unlimited
  | Maximum stacksize for task 120: unlimited
  | Maximum stacksize for task 121: unlimited
  | Maximum stacksize for task 122: unlimited
  | Maximum stacksize for task 123: unlimited
  | Maximum stacksize for task 124: unlimited
  | Maximum stacksize for task 125: unlimited
  | Maximum stacksize for task 126: unlimited
  | Maximum stacksize for task 127: unlimited
  | Current stacksize for task 0: unlimited
  | Current stacksize for task 1: unlimited
  | Current stacksize for task 2: unlimited
  | Current stacksize for task 3: unlimited
  | Current stacksize for task 4: unlimited
  | Current stacksize for task 5: unlimited
  | Current stacksize for task 6: unlimited
  | Current stacksize for task 7: unlimited
  | Current stacksize for task 8: unlimited
  | Current stacksize for task 9: unlimited
  | Current stacksize for task 10: unlimited
  | Current stacksize for task 11: unlimited
  | Current stacksize for task 12: unlimited
  | Current stacksize for task 13: unlimited
  | Current stacksize for task 14: unlimited
  | Current stacksize for task 15: unlimited
  | Current stacksize for task 16: unlimited
  | Current stacksize for task 17: unlimited
  | Current stacksize for task 18: unlimited
  | Current stacksize for task 19: unlimited
  | Current stacksize for task 20: unlimited
  | Current stacksize for task 21: unlimited
  | Current stacksize for task 22: unlimited
  | Current stacksize for task 23: unlimited
  | Current stacksize for task 24: unlimited
  | Current stacksize for task 25: unlimited
  | Current stacksize for task 26: unlimited
  | Current stacksize for task 27: unlimited
  | Current stacksize for task 28: unlimited
  | Current stacksize for task 29: unlimited
  | Current stacksize for task 30: unlimited
  | Current stacksize for task 31: unlimited
  | Current stacksize for task 32: unlimited
  | Current stacksize for task 33: unlimited
  | Current stacksize for task 34: unlimited
  | Current stacksize for task 35: unlimited
  | Current stacksize for task 36: unlimited
  | Current stacksize for task 37: unlimited
  | Current stacksize for task 38: unlimited
  | Current stacksize for task 39: unlimited
  | Current stacksize for task 40: unlimited
  | Current stacksize for task 41: unlimited
  | Current stacksize for task 42: unlimited
  | Current stacksize for task 43: unlimited
  | Current stacksize for task 44: unlimited
  | Current stacksize for task 45: unlimited
  | Current stacksize for task 46: unlimited
  | Current stacksize for task 47: unlimited
  | Current stacksize for task 48: unlimited
  | Current stacksize for task 49: unlimited
  | Current stacksize for task 50: unlimited
  | Current stacksize for task 51: unlimited
  | Current stacksize for task 52: unlimited
  | Current stacksize for task 53: unlimited
  | Current stacksize for task 54: unlimited
  | Current stacksize for task 55: unlimited
  | Current stacksize for task 56: unlimited
  | Current stacksize for task 57: unlimited
  | Current stacksize for task 58: unlimited
  | Current stacksize for task 59: unlimited
  | Current stacksize for task 60: unlimited
  | Current stacksize for task 61: unlimited
  | Current stacksize for task 62: unlimited
  | Current stacksize for task 63: unlimited
  | Current stacksize for task 64: unlimited
  | Current stacksize for task 65: unlimited
  | Current stacksize for task 66: unlimited
  | Current stacksize for task 67: unlimited
  | Current stacksize for task 68: unlimited
  | Current stacksize for task 69: unlimited
  | Current stacksize for task 70: unlimited
  | Current stacksize for task 71: unlimited
  | Current stacksize for task 72: unlimited
  | Current stacksize for task 73: unlimited
  | Current stacksize for task 74: unlimited
  | Current stacksize for task 75: unlimited
  | Current stacksize for task 76: unlimited
  | Current stacksize for task 77: unlimited
  | Current stacksize for task 78: unlimited
  | Current stacksize for task 79: unlimited
  | Current stacksize for task 80: unlimited
  | Current stacksize for task 81: unlimited
  | Current stacksize for task 82: unlimited
  | Current stacksize for task 83: unlimited
  | Current stacksize for task 84: unlimited
  | Current stacksize for task 85: unlimited
  | Current stacksize for task 86: unlimited
  | Current stacksize for task 87: unlimited
  | Current stacksize for task 88: unlimited
  | Current stacksize for task 89: unlimited
  | Current stacksize for task 90: unlimited
  | Current stacksize for task 91: unlimited
  | Current stacksize for task 92: unlimited
  | Current stacksize for task 93: unlimited
  | Current stacksize for task 94: unlimited
  | Current stacksize for task 95: unlimited
  | Current stacksize for task 96: unlimited
  | Current stacksize for task 97: unlimited
  | Current stacksize for task 98: unlimited
  | Current stacksize for task 99: unlimited
  | Current stacksize for task 100: unlimited
  | Current stacksize for task 101: unlimited
  | Current stacksize for task 102: unlimited
  | Current stacksize for task 103: unlimited
  | Current stacksize for task 104: unlimited
  | Current stacksize for task 105: unlimited
  | Current stacksize for task 106: unlimited
  | Current stacksize for task 107: unlimited
  | Current stacksize for task 108: unlimited
  | Current stacksize for task 109: unlimited
  | Current stacksize for task 110: unlimited
  | Current stacksize for task 111: unlimited
  | Current stacksize for task 112: unlimited
  | Current stacksize for task 113: unlimited
  | Current stacksize for task 114: unlimited
  | Current stacksize for task 115: unlimited
  | Current stacksize for task 116: unlimited
  | Current stacksize for task 117: unlimited
  | Current stacksize for task 118: unlimited
  | Current stacksize for task 119: unlimited
  | Current stacksize for task 120: unlimited
  | Current stacksize for task 121: unlimited
  | Current stacksize for task 122: unlimited
  | Current stacksize for task 123: unlimited
  | Current stacksize for task 124: unlimited
  | Current stacksize for task 125: unlimited
  | Current stacksize for task 126: unlimited
  | Current stacksize for task 127: unlimited

  Consistency checks for the contents of control.in are next.

  MPI_IN_PLACE appears to work with this MPI implementation.
  | Keeping use_mpi_in_place .true. (see manual).
  Species C: Using default value for prodbas_acc =   1.000000E-04.
  Species C: Using default value max_l_prodbas =    20.
  Species O: Using default value for prodbas_acc =   1.000000E-04.
  Species O: Using default value max_l_prodbas =    20.
  Species H: Using default value for prodbas_acc =   1.000000E-04.
  Species H: Using default value max_l_prodbas =    20.
  Target number of points in a grid batch is not set. Defaulting to  100
  Method for grid partitioning is not set. Defaulting to parallel hash+maxmin partitioning.
  Batch size limit is not set. Defaulting to    200
  By default, will store active basis functions for each batch.
  If in need of memory, prune_basis_once .false. can be used to disable this option.
  communication_type for Hartree potential was not specified.
  Defaulting to calc_hartree .
  Pulay mixer: Number of initial linear mixing iterations not set.
  Defaulting to    0 iterations.
  Work space size for distributed Hartree potential not set.
  Defaulting to   0.200000E+03 MB.
  Mixing parameter for charge density mixing has not been set.
  Using default: charge_mix_param =     0.0500.
  The mixing parameter will be adjusted in iteration number     2 of each s.c.f. cycle (i.e., each geometry step).
  Algorithm-dependent basis array size parameters:
  | n_max_pulay                         :       10
  Maximum number of self-consistency iterations not provided.
  Presetting  1000 iterations.
  Presetting      1001 iterations before the initial mixing cycle
  is restarted anyway using the sc_init_iter criterion / keyword.
  Presetting a factor      1.000 between actual scf density residual
  and density convergence criterion sc_accuracy_rho below which sc_init_iter
  takes no effect.
 * No s.c.f. convergence criteria (sc_accuracy_*) were provided in control.in.
 * The run will proceed with a reasonable default guess, but please check whether.
 * the s.c.f. cycles seem to take too much or too little time.
  Calculation of forces was not defined in control.in. No forces will be calculated.
  Geometry relaxation not requested: no relaxation will be performed.
 * Notice: The s.c.f. convergence criterion sc_accuracy_rho was not provided.
 * We used to stop in this case, and ask the user to provide reasonable
 * scf convergence criteria. However, this led some users to employ criteria
 * that led to extremely long run times, e.g., for simple relaxation.
 * We now preset a default value for sc_accuracy_rho if it is not set.
 * You may still wish to check if this setting is too tight or too loose for your needs.
 * Based on n_atoms and forces and force-correction status, FHI-aims chose sc_accuracy_rho =  0.195959E-04 .
  No accuracy limit for integral partition fn. given. Defaulting to  0.1000E-14.
  No threshold value for u(r) in integrations given. Defaulting to  0.1000E-05.
  No accuracy for occupation numbers given. Defaulting to  0.1000E-12.
  No threshold value for occupation numbers given. Defaulting to  0.0000E+00.
  No accuracy for fermi level given. Defaulting to  0.1000E-19.
  Maximum # of iterations to find E_F not set. Defaulting to  200.
  Will not use alltoall communication since running on < 1024 CPUs.
  partition_type (choice of integration weights) for integrals was not specified.
  | Using a version of the partition function of Stratmann and coworkers ('stratmann_sparse').
  | At each grid point, the set of atoms used to build the partition table is smoothly restricted to
  | only those atoms whose free-atom density would be non-zero at that grid point.
  Partitioning for Hartree potential was not defined. Using partition_type for integrals.
  | Adjusted default value of keyword multip_moments_threshold to:       0.10000000E-11
  | This value may affect high angular momentum components of the Hartree potential in periodic systems.
  Spin handling was not defined in control.in. Defaulting to unpolarized case.
  Threshold for auxiliary basis singularities not set.
  Default threshold for auxiliary basis singularities:  0.1000E-04
  No q(lm)/r^(l+1) cutoff set for long-range Hartree potential.
  | Using default value of  0.100000E-09 .
  | Verify using the multipole_threshold keyword.
  Defaulting to new monopole extrapolation.
  Density update method: density matrix based density update selected.
  Scalapack and density-matrix based density update required:
  Switching to packed matrix format "index" by default.
  Coulomb operator: Defaulting to screening threshold for four-center integrals:   0.100000E-06
  Coulomb operator: Defaulting to screening threshold for Coulomb matrix:   0.100000E-09
  Fock matrix calculation: Setting the screening threshold for overlap matrix to coul_mat_threshold:   0.100000E-09
  Coulomb operator: Defaulting to logarithmic spherical Bessel transform integrals (use_logsbt .true.).
  Charge integration errors on the 3D integration grid will be compensated
  by explicit normalization and distribution of residual charges.
  Use the "compensate_multipole_errors" flag to change this behaviour.
  LVL not implemented with density matrix yet
  -> switching to transformed overlap
  LVL probably works better with logsbt
  Default to 1D ("use_logsbt") integrations for auxiliary 2-center integrals.
  Default onset of logarithmic r-grid for SBT is -38.000000000000
  Default onset of logarithmic k-grid for SBT is -25.000000000000
  Default range of logarithmic r- and k-grid for SBT is  45.000000000000
  Default number of logarithmic r- and k-grid for SBT is   4096
  Found no potential conflicts with setting 'use_local_index' for this calculation.
  Flag 'use_local_index' has not been set.
  Testing whether we classify this calculation as large-scale ...
  The calculation contains less than 100 atoms. This is most likely not a large-scale calculation.
  Not setting 'use_local_index'.

  Consistency checks for the contents of geometry.in are next.

  Number of empty states per atom not set in control.in - providing a guess from actual geometry.
  | Total number of empty states used during s.c.f. cycle:       72
  If you use a very high smearing, use empty_states (per atom!) in control.in to increase this value.

  Structure-dependent array size parameters: 
  | Maximum number of distinct radial functions  :       33
  | Maximum number of basis functions            :      780
  | Number of Kohn-Sham states (occupied + empty):      122
------------------------------------------------------------
  After read_input_data [GB]:    231.38

  Performing system and environment tests:
  | Environment variable OMP_NUM_THREADS correctly set to 1.
  | Checking for ScaLAPACK...
  | Testing pdtran()...
  | All pdtran() tests passed.
  After prepare_system [GB]:    231.26

------------------------------------------------------------
          Preparing all fixed parts of the calculation.
------------------------------------------------------------
  Determining machine precision:
     2.2250738585072014E-308
  Setting up grids for atomic and cluster calculations.

  Creating wave function, potential, and density for free atoms.
  Runtime choices for atomic solver:
  | atomic solver xc        : PBE
  | compute density gradient: 1
  | compute kinetic density : F

  Species: C

  List of occupied orbitals and eigenvalues:
    n    l              occ      energy [Ha]    energy [eV]
    1    0           2.0000       -10.049212      -273.4530
    2    0           2.0000        -0.504761       -13.7352
    2    1           2.0000        -0.193631        -5.2690


  Species: O

  List of occupied orbitals and eigenvalues:
    n    l              occ      energy [Ha]    energy [eV]
    1    0           2.0000       -18.927378      -515.0401
    2    0           2.0000        -0.880539       -23.9607
    2    1           4.0000        -0.331811        -9.0290


  Species: H

  List of occupied orbitals and eigenvalues:
    n    l              occ      energy [Ha]    energy [eV]
    1    0           1.0000        -0.238386        -6.4868


  Adding cutoff potential to free-atom effective potential.
  Creating fixed part of basis set: Ionic, confined, hydrogenic.

  C                    hydrogenic:

  List of hydrogenic basis orbitals: 
    n    l      effective z      eigenvalue [eV]  inner max. [A]     outer max. [A]     outer radius [A]   
    1    0         1.806901       -44.4211           0.294391           0.294391           4.780049
    1    0         3.259668      -144.5664           0.161723           0.161723           2.895699
    2    1         1.974043       -13.2515           1.075734           1.075734           5.401630
    2    1         3.166168       -34.0980           0.667797           0.667797           5.207114
    3    2         5.890639       -52.4569           0.812068           0.812068           5.081344
    3    2         6.677161       -67.4003           0.709889           0.709889           4.958612
    4    3        10.149675       -87.6002           0.832167           0.832167           4.898362
    1    0         6.773070      -624.1540           0.077664           0.077664           1.425008
    1    0        13.859134     -2613.3215           0.038219           0.038219           0.709889
    2    1         3.647461       -45.2524           0.583771           0.583771           5.019603


  O                    hydrogenic:

  List of hydrogenic basis orbitals: 
    n    l      effective z      eigenvalue [eV]  inner max. [A]     outer max. [A]     outer radius [A]   
    1    0         1.848771       -46.5036           0.285417           0.285417           4.749044
    1    0         3.095778      -130.3948           0.170802           0.170802           3.058254
    2    1         2.448957       -20.3995           0.868203           0.868203           5.301386
    2    1         5.857226      -116.6929           0.360044           0.360044           3.673771
    3    2         8.537017      -110.1769           0.559099           0.559099           4.202559
    3    2         8.962760      -121.4400           0.532417           0.532417           4.051222
    4    3        14.096196      -168.9680           0.601650           0.601650           3.764702
    1    0         3.621656      -178.4576           0.145704           0.145704           2.608875
    1    0         5.972725      -485.3619           0.088266           0.088266           1.619544
    2    1         6.294042      -134.7472           0.334580           0.334580           3.455938


  H                    hydrogenic:

  List of hydrogenic basis orbitals: 
    n    l      effective z      eigenvalue [eV]  inner max. [A]     outer max. [A]     outer radius [A]   
    1    0         1.219572       -20.2365           0.433025           0.433025           5.243229
    1    0         1.790153       -43.6015           0.296433           0.296433           4.813203
    2    1         3.438629       -40.2190           0.617279           0.617279           5.116587
    2    1         3.486847       -41.3549           0.609778           0.609778           5.116587
    3    2         6.208287       -58.2669           0.769215           0.769215           5.054418
    1    0         2.627683       -93.9435           0.200461           0.200461           3.589321

  Creating atomic-like basis functions for current effective potential.

  Species C                   :

  List of atomic basis orbitals and eigenvalues:
    n    l      energy [Ha]    energy [eV]    outer radius [A]
    1    0       -10.049212      -273.4530       1.934409
    2    0        -0.504761       -13.7352       5.271162
    2    1        -0.193631        -5.2690       5.401630


  Species O                   :

  List of atomic basis orbitals and eigenvalues:
    n    l      energy [Ha]    energy [eV]    outer radius [A]
    1    0       -18.927378      -515.0401       1.415765
    2    0        -0.880539       -23.9607       5.048385
    2    1        -0.331811        -9.0290       5.301386


  Species H                   :

  List of atomic basis orbitals and eigenvalues:
    n    l      energy [Ha]    energy [eV]    outer radius [A]
    1    0        -0.238386        -6.4868       5.373006

  Assembling full basis from fixed parts.
  | Species C :   atomic orbital   1 s accepted.
  | Species C :   atomic orbital   2 s accepted.
  | Species C :    hydro orbital   1 s accepted.
  | Species C :    hydro orbital   1 s accepted.
  | Species C :    hydro orbital   1 s accepted.
  | Species C :    hydro orbital   1 s accepted.
  | Species C :   atomic orbital   2 p accepted.
  | Species C :    hydro orbital   2 p accepted.
  | Species C :    hydro orbital   2 p accepted.
  | Species C :    hydro orbital   2 p accepted.
  | Species C :    hydro orbital   3 d accepted.
  | Species C :    hydro orbital   3 d accepted.
  | Species C :    hydro orbital   4 f accepted.
  | Species O :   atomic orbital   1 s accepted.
  | Species O :   atomic orbital   2 s accepted.
  | Species O :    hydro orbital   1 s accepted.
  | Species O :    hydro orbital   1 s accepted.
  | Species O :    hydro orbital   1 s accepted.
  | Species O :    hydro orbital   1 s accepted.
  | Species O :   atomic orbital   2 p accepted.
  | Species O :    hydro orbital   2 p accepted.
  | Species O :    hydro orbital   2 p accepted.
  | Species O :    hydro orbital   2 p accepted.
  | Species O :    hydro orbital   3 d accepted.
  | Species O :    hydro orbital   3 d accepted.
  | Species O :    hydro orbital   4 f accepted.
  | Species H :   atomic orbital   1 s accepted.
  | Species H :    hydro orbital   1 s accepted.
  | Species H :    hydro orbital   1 s accepted.
  | Species H :    hydro orbital   1 s accepted.
  | Species H :    hydro orbital   2 p accepted.
  | Species H :    hydro orbital   2 p accepted.
  | Species H :    hydro orbital   3 d accepted.

  Basis size parameters after reduction:
  | Total number of radial functions:       33
  | Total number of basis functions :      780

  Per-task memory consumption for arrays in subroutine allocate_ext:
  |          11.013528MB.
  Testing on-site integration grid accuracy.
  |  Species  Function  <phi|h_atom|phi> (log., in eV)  <phi|h_atom|phi> (rad., in eV)
           1        1               -273.4529725981               -273.4529710451
           1        2                -13.7352530191                -13.7352524550
           1        3                 86.2023959499                 86.2029767647
           1        4                260.2909073737                260.2918994838
           1        5                563.5510062075                563.5857012050 ***
           1        6               4529.1613221568               4529.2331546281 ***
           1        7                 -5.2694407727                 -5.2694065285
           1        8                 12.8835084872                 12.8835821661
           1        9                 52.7701778290                 52.7713139734
           1       10                180.8047974108                180.8047860803
           1       11                 26.4065695601                 26.4065695149
           1       12                 63.3949305197                 63.3949301312
           1       13                 63.7095627995                 63.7095627983
           2       14               -515.0401491148               -515.0401445497
           2       15                -23.9606901999                -23.9606901323
           2       16                206.0187779700                206.0211765023
           2       17                158.2680046985                158.2701180152
           2       18                561.6007594243                561.6062533605
           2       19               1656.0587631500               1656.0425294084
           2       20                 -9.0290718243                 -9.0290720379
           2       21                 18.3295167950                 18.3295142218
           2       22                208.6408259714                208.6408479852
           2       23                167.4902732150                167.4902742661
           2       24                 57.8199386798                 57.8199387405
           2       25                119.1758445227                119.1758446893
           2       26                125.2521680551                125.2521680660
           3       27                 -6.4870767962                 -6.4871688290
           3       28                  9.6181532369                  9.6169105299
           3       29                 63.1486086958                 63.1461585604
           3       30                200.3171618282                200.3149665030
           3       31                 24.1870988321                 24.1870987988
           3       32                 56.8339599798                 56.8339562921
           3       33                 46.6431498561                 46.6431498370
 * Note: Onsite integrals marked "***" above are less accurate than
 * onsite_accuracy_threshold =    0.03000 eV. Usually, this is harmless.
 * When in doubt, tighten the "radial" and/or "radial_multiplier" flags to check.

  Task       0:*** pseudo_inverse, for evaluate_coeff_d: error of  2.97E-13; eps:  1.00E-15
  Preparing densities etc. for the partition functions (integrals / Hartree potential).

  Preparations completed.
  max(cpu_time)          :      0.303 s.
  Wall clock time (cpu1) :      0.400 s.
------------------------------------------------------------
  After prepare_scf [GB]:    227.13

  Initializing index lists of integration centers etc. from given atomic structure:
  | Consuming          0 KiB for k_phase_exx.
  | Number of centers in hartree potential         :        36
  | Number of centers in hartree multipole         :        36
  | Number of centers in electron density summation:        36
  | Number of centers in basis integrals           :        36
  | Number of centers in integrals                 :        36
  | Number of centers in hamiltonian               :        36
  After initialize_bc_dependent_lists [GB]:    227.13

  Initializing index lists of integration centers etc. from given atomic structure:
  | Consuming          0 KiB for k_phase_exx.
  | Number of centers in hartree potential         :        36
  | Number of centers in hartree multipole         :        36
  | Number of centers in electron density summation:        36
  | Number of centers in basis integrals           :        36
  | Number of centers in integrals                 :        36
  | Number of centers in hamiltonian               :        36

------------------------------------------------------------
          Begin self-consistency loop: Initialization.

          Date     :  20250628, Time     :  192033.603
------------------------------------------------------------
  Available memory per node after initialize_hartree_non_periodic_ewald [GB]:    227.13
  Available memory per node after initialize_recip_hartree_potential [GB]:    227.13
  * Using 128 tasks for Scalapack Eigenvalue solver.
  Detailed listing of tasks and assigned k-points:
  (for non-periodic systems, the "k-point" denotes an internal label only)
   Task     0 k-point     1 on nid002152
   Task     1 k-point     1 on nid002152
   Task     2 k-point     1 on nid002152
   Task     3 k-point     1 on nid002152
   Task     4 k-point     1 on nid002152
   Task     5 k-point     1 on nid002152
   Task     6 k-point     1 on nid002152
   Task     7 k-point     1 on nid002152
   Task     8 k-point     1 on nid002152
   Task     9 k-point     1 on nid002152
   Task    10 k-point     1 on nid002152
   Task    11 k-point     1 on nid002152
   Task    12 k-point     1 on nid002152
   Task    13 k-point     1 on nid002152
   Task    14 k-point     1 on nid002152
   Task    15 k-point     1 on nid002152
   Task    16 k-point     1 on nid002152
   Task    17 k-point     1 on nid002152
   Task    18 k-point     1 on nid002152
   Task    19 k-point     1 on nid002152
   Task    20 k-point     1 on nid002152
   Task    21 k-point     1 on nid002152
   Task    22 k-point     1 on nid002152
   Task    23 k-point     1 on nid002152
   Task    24 k-point     1 on nid002152
   Task    25 k-point     1 on nid002152
   Task    26 k-point     1 on nid002152
   Task    27 k-point     1 on nid002152
   Task    28 k-point     1 on nid002152
   Task    29 k-point     1 on nid002152
   Task    30 k-point     1 on nid002152
   Task    31 k-point     1 on nid002152
   Task    32 k-point     1 on nid002152
   Task    33 k-point     1 on nid002152
   Task    34 k-point     1 on nid002152
   Task    35 k-point     1 on nid002152
   Task    36 k-point     1 on nid002152
   Task    37 k-point     1 on nid002152
   Task    38 k-point     1 on nid002152
   Task    39 k-point     1 on nid002152
   Task    40 k-point     1 on nid002152
   Task    41 k-point     1 on nid002152
   Task    42 k-point     1 on nid002152
   Task    43 k-point     1 on nid002152
   Task    44 k-point     1 on nid002152
   Task    45 k-point     1 on nid002152
   Task    46 k-point     1 on nid002152
   Task    47 k-point     1 on nid002152
   Task    48 k-point     1 on nid002152
   Task    49 k-point     1 on nid002152
   Task    50 k-point     1 on nid002152
   Task    51 k-point     1 on nid002152
   Task    52 k-point     1 on nid002152
   Task    53 k-point     1 on nid002152
   Task    54 k-point     1 on nid002152
   Task    55 k-point     1 on nid002152
   Task    56 k-point     1 on nid002152
   Task    57 k-point     1 on nid002152
   Task    58 k-point     1 on nid002152
   Task    59 k-point     1 on nid002152
   Task    60 k-point     1 on nid002152
   Task    61 k-point     1 on nid002152
   Task    62 k-point     1 on nid002152
   Task    63 k-point     1 on nid002152
   Task    64 k-point     1 on nid002152
   Task    65 k-point     1 on nid002152
   Task    66 k-point     1 on nid002152
   Task    67 k-point     1 on nid002152
   Task    68 k-point     1 on nid002152
   Task    69 k-point     1 on nid002152
   Task    70 k-point     1 on nid002152
   Task    71 k-point     1 on nid002152
   Task    72 k-point     1 on nid002152
   Task    73 k-point     1 on nid002152
   Task    74 k-point     1 on nid002152
   Task    75 k-point     1 on nid002152
   Task    76 k-point     1 on nid002152
   Task    77 k-point     1 on nid002152
   Task    78 k-point     1 on nid002152
   Task    79 k-point     1 on nid002152
   Task    80 k-point     1 on nid002152
   Task    81 k-point     1 on nid002152
   Task    82 k-point     1 on nid002152
   Task    83 k-point     1 on nid002152
   Task    84 k-point     1 on nid002152
   Task    85 k-point     1 on nid002152
   Task    86 k-point     1 on nid002152
   Task    87 k-point     1 on nid002152
   Task    88 k-point     1 on nid002152
   Task    89 k-point     1 on nid002152
   Task    90 k-point     1 on nid002152
   Task    91 k-point     1 on nid002152
   Task    92 k-point     1 on nid002152
   Task    93 k-point     1 on nid002152
   Task    94 k-point     1 on nid002152
   Task    95 k-point     1 on nid002152
   Task    96 k-point     1 on nid002152
   Task    97 k-point     1 on nid002152
   Task    98 k-point     1 on nid002152
   Task    99 k-point     1 on nid002152
   Task   100 k-point     1 on nid002152
   Task   101 k-point     1 on nid002152
   Task   102 k-point     1 on nid002152
   Task   103 k-point     1 on nid002152
   Task   104 k-point     1 on nid002152
   Task   105 k-point     1 on nid002152
   Task   106 k-point     1 on nid002152
   Task   107 k-point     1 on nid002152
   Task   108 k-point     1 on nid002152
   Task   109 k-point     1 on nid002152
   Task   110 k-point     1 on nid002152
   Task   111 k-point     1 on nid002152
   Task   112 k-point     1 on nid002152
   Task   113 k-point     1 on nid002152
   Task   114 k-point     1 on nid002152
   Task   115 k-point     1 on nid002152
   Task   116 k-point     1 on nid002152
   Task   117 k-point     1 on nid002152
   Task   118 k-point     1 on nid002152
   Task   119 k-point     1 on nid002152
   Task   120 k-point     1 on nid002152
   Task   121 k-point     1 on nid002152
   Task   122 k-point     1 on nid002152
   Task   123 k-point     1 on nid002152
   Task   124 k-point     1 on nid002152
   Task   125 k-point     1 on nid002152
   Task   126 k-point     1 on nid002152
   Task   127 k-point     1 on nid002152
  Tasks:   128 split into     16 X      8 BLACS grid
  Calculating block size based on n_basis =          780  max_nprow =           16  max_npcol =            8
  ScaLAPACK block size set to:           16
  Allocating        0.049 MB for ovlp
  Allocating        0.049 MB for ham
  Allocating        0.049 MB for eigenvec
  Required Scalapack workspace - INTEGER:            1  REAL:             1
  Available memory per node after initialize_scalapack [GB]:    227.13
  Available memory per node after aims_elsi_init_scf [GB]:    227.13
  Available memory per node after initialize_fixed_grids [GB]:    227.13
  Partitioning the integration grid into batches with parallel hashing+maxmin method.
  | Number of batches:     8424
  | Maximal batch size:     200
  | Minimal batch size:       2
  | Average batch size:     108.520
  | Standard deviation of batch sizes:      32.608

  Integration load balanced across   128 MPI tasks.
  Work distribution over tasks is as follows:
  Task     0 has       7110 integration points.
  Task     1 has       7158 integration points.
  Task     2 has       7147 integration points.
  Task     3 has       7109 integration points.
  Task     4 has       7212 integration points.
  Task     5 has       7118 integration points.
  Task     6 has       7115 integration points.
  Task     7 has       7133 integration points.
  Task     8 has       7189 integration points.
  Task     9 has       7188 integration points.
  Task    10 has       7120 integration points.
  Task    11 has       7186 integration points.
  Task    12 has       7191 integration points.
  Task    13 has       7143 integration points.
  Task    14 has       7136 integration points.
  Task    15 has       7183 integration points.
  Task    16 has       7147 integration points.
  Task    17 has       7116 integration points.
  Task    18 has       7149 integration points.
  Task    19 has       7099 integration points.
  Task    20 has       7207 integration points.
  Task    21 has       7109 integration points.
  Task    22 has       7095 integration points.
  Task    23 has       7096 integration points.
  Task    24 has       7115 integration points.
  Task    25 has       7149 integration points.
  Task    26 has       7098 integration points.
  Task    27 has       7213 integration points.
  Task    28 has       7102 integration points.
  Task    29 has       7209 integration points.
  Task    30 has       7140 integration points.
  Task    31 has       7111 integration points.
  Task    32 has       7132 integration points.
  Task    33 has       7169 integration points.
  Task    34 has       7099 integration points.
  Task    35 has       7096 integration points.
  Task    36 has       7171 integration points.
  Task    37 has       7153 integration points.
  Task    38 has       7124 integration points.
  Task    39 has       7144 integration points.
  Task    40 has       7143 integration points.
  Task    41 has       7111 integration points.
  Task    42 has       7181 integration points.
  Task    43 has       7185 integration points.
  Task    44 has       7186 integration points.
  Task    45 has       7215 integration points.
  Task    46 has       7111 integration points.
  Task    47 has       7145 integration points.
  Task    48 has       7194 integration points.
  Task    49 has       7151 integration points.
  Task    50 has       7146 integration points.
  Task    51 has       7125 integration points.
  Task    52 has       7181 integration points.
  Task    53 has       7141 integration points.
  Task    54 has       7148 integration points.
  Task    55 has       7189 integration points.
  Task    56 has       7141 integration points.
  Task    57 has       7148 integration points.
  Task    58 has       7145 integration points.
  Task    59 has       7188 integration points.
  Task    60 has       7115 integration points.
  Task    61 has       7097 integration points.
  Task    62 has       7107 integration points.
  Task    63 has       7073 integration points.
  Task    64 has       7143 integration points.
  Task    65 has       7110 integration points.
  Task    66 has       7150 integration points.
  Task    67 has       7132 integration points.
  Task    68 has       7112 integration points.
  Task    69 has       7161 integration points.
  Task    70 has       7210 integration points.
  Task    71 has       7170 integration points.
  Task    72 has       7119 integration points.
  Task    73 has       7143 integration points.
  Task    74 has       7187 integration points.
  Task    75 has       7112 integration points.
  Task    76 has       7113 integration points.
  Task    77 has       7112 integration points.
  Task    78 has       7116 integration points.
  Task    79 has       7210 integration points.
  Task    80 has       7191 integration points.
  Task    81 has       7119 integration points.
  Task    82 has       7172 integration points.
  Task    83 has       7154 integration points.
  Task    84 has       7090 integration points.
  Task    85 has       7112 integration points.
  Task    86 has       7162 integration points.
  Task    87 has       7116 integration points.
  Task    88 has       7184 integration points.
  Task    89 has       7160 integration points.
  Task    90 has       7120 integration points.
  Task    91 has       7153 integration points.
  Task    92 has       7145 integration points.
  Task    93 has       7186 integration points.
  Task    94 has       7114 integration points.
  Task    95 has       7189 integration points.
  Task    96 has       7184 integration points.
  Task    97 has       7189 integration points.
  Task    98 has       7145 integration points.
  Task    99 has       7150 integration points.
  Task   100 has       7116 integration points.
  Task   101 has       7122 integration points.
  Task   102 has       7163 integration points.
  Task   103 has       7082 integration points.
  Task   104 has       7100 integration points.
  Task   105 has       7115 integration points.
  Task   106 has       7128 integration points.
  Task   107 has       7179 integration points.
  Task   108 has       7148 integration points.
  Task   109 has       7138 integration points.
  Task   110 has       7103 integration points.
  Task   111 has       7113 integration points.
  Task   112 has       7212 integration points.
  Task   113 has       7141 integration points.
  Task   114 has       7148 integration points.
  Task   115 has       7096 integration points.
  Task   116 has       7150 integration points.
  Task   117 has       7137 integration points.
  Task   118 has       7151 integration points.
  Task   119 has       7150 integration points.
  Task   120 has       7098 integration points.
  Task   121 has       7112 integration points.
  Task   122 has       7165 integration points.
  Task   123 has       7105 integration points.
  Task   124 has       7086 integration points.
  Task   125 has       7153 integration points.
  Task   126 has       7067 integration points.
  Task   127 has       7116 integration points.
  Available memory per node after partition_grid [GB]:    227.08
  Initializing partition tables, free-atom densities, potentials, etc. across the integration grid (initialize_grid_storage).
  | initialize_grid_storage: Actual outermost partition radius vs. multipole_radius_free
  | (-- VB: in principle, multipole_radius_free should be larger, hence this output)
  | Species        1: Confinement radius =              6.000000000000000 AA, multipole_radius_free =              6.029870734432609 AA.
  | Species        1: outer_partition_radius set to              6.029870734432609 AA .
  | Species        2: Confinement radius =              6.000000000000000 AA, multipole_radius_free =              6.064445521808699 AA.
  | Species        2: outer_partition_radius set to              6.064445521808699 AA .
  | Species        3: Confinement radius =              6.000000000000000 AA, multipole_radius_free =              6.071692442739658 AA.
  | Species        3: outer_partition_radius set to              6.071692442739658 AA .
  | The sparse table of interatomic distances needs         15.27 kbyte instead of        10.37 kbyte of memory.
  | Using the partition_type stratmann_smoother will reduce your memory usage.
  | Net number of integration points:   914176
  | of which are non-zero points    :   694181
  Available memory per node after initialize_grid_storage_p1 [GB]:    227.02
  Renormalizing the initial density to the exact electron count on the 3D integration grid.
  | Initial density: Formal number of electrons (from input files) :     100.0000000000
  | Integrated number of electrons on 3D grid     :      99.9999933626
  | Charge integration error                      :      -0.0000066374
  | Normalization factor for density and gradient :       1.0000000664
  Renormalizing the free-atom superposition density to the exact electron count on the 3D integration grid.
  | Formal number of electrons (from input files) :     100.0000000000
  | Integrated number of electrons on 3D grid     :      99.9999933626
  | Charge integration error                      :      -0.0000066374
  | Normalization factor for density and gradient :       1.0000000664
  Obtaining max. number of non-zero basis functions in each batch (get_n_compute_maxes).
  | Maximal number of non-zero basis functions:      585 in task     0
  | Maximal number of non-zero basis functions:      609 in task     1
  | Maximal number of non-zero basis functions:      588 in task     2
  | Maximal number of non-zero basis functions:      594 in task     3
  | Maximal number of non-zero basis functions:      557 in task     4
  | Maximal number of non-zero basis functions:      605 in task     5
  | Maximal number of non-zero basis functions:      554 in task     6
  | Maximal number of non-zero basis functions:      597 in task     7
  | Maximal number of non-zero basis functions:      588 in task     8
  | Maximal number of non-zero basis functions:      612 in task     9
  | Maximal number of non-zero basis functions:      594 in task    10
  | Maximal number of non-zero basis functions:      606 in task    11
  | Maximal number of non-zero basis functions:      625 in task    12
  | Maximal number of non-zero basis functions:      577 in task    13
  | Maximal number of non-zero basis functions:      602 in task    14
  | Maximal number of non-zero basis functions:      596 in task    15
[...]
  Times             Block #1    Block #2    Block #3    Block #4    Block #5    Block #6    Block #7    Block #8
  | Times    0:        0.002       0.000       0.000       0.000       0.000       0.000       0.019       0.000

  Times             Block #9   Block #10   Block #11   Block #12   Block #13   Block #14   Block #15   Block #16
  | Times    0:        0.000       0.000       0.001       0.007       0.000       0.002       0.001       0.000

  Times            Block Sum    Expected
  | Times    0:        0.032       0.057
  Time for Fock matrix mixing     0.014

  Updating Kohn-Sham eigenvalues and eigenvectors using ELSI and the ELPA eigensolver.
  Starting ELPA eigensolver
      Allocating      0.067 MB for tmp
      Deallocating tmp
  Finished transformation to standard eigenproblem
  | Time :     0.004 s
  Finished solving standard eigenproblem
  | Time :     0.040 s
      Allocating      0.052 MB for tmp
      Deallocating tmp
  Finished back-transformation of eigenvectors
  | Time :     0.002 s

  Obtaining occupation numbers and electronic chemical potential using ELSI.
  | Note that, for insulating systems, the printed 'chemical potential' value is not uniquely defined.
  | It can be anywhere in the energy gap, as long as it correctly separates occupied and unoccupied states.
  | In systems with a gap, the physically relevant chemical potential is the VBM or HOMO.

  | Chemical potential (Fermi level):    -3.50441759 eV
  Writing Kohn-Sham eigenvalues.

  State    Occupation    Eigenvalue [Ha]    Eigenvalue [eV]
      1       2.00000         -19.249047         -523.79322
      2       2.00000         -19.218681         -522.96691
      3       2.00000         -10.285159         -279.87342
      4       2.00000         -10.264337         -279.30682
      5       2.00000         -10.231876         -278.42351
      6       2.00000         -10.231557         -278.41483
      7       2.00000         -10.230792         -278.39401
      8       2.00000         -10.222557         -278.16993
      9       2.00000         -10.221071         -278.12949
     10       2.00000         -10.220954         -278.12630
     11       2.00000         -10.217134         -278.02236
     12       2.00000         -10.214840         -277.95995
     13       2.00000          -1.061215          -28.87712
     14       2.00000          -1.036787          -28.21242
     15       2.00000          -0.833476          -22.68004
     16       2.00000          -0.821511          -22.35446
     17       2.00000          -0.776516          -21.13007
     18       2.00000          -0.762931          -20.76042
     19       2.00000          -0.697782          -18.98762
     20       2.00000          -0.682543          -18.57295
     21       2.00000          -0.620744          -16.89130
     22       2.00000          -0.607107          -16.52022
     23       2.00000          -0.599971          -16.32603
     24       2.00000          -0.587766          -15.99394
     25       2.00000          -0.535913          -14.58293
     26       2.00000          -0.514851          -14.00981
     27       2.00000          -0.505889          -13.76594
     28       2.00000          -0.493393          -13.42591
     29       2.00000          -0.470238          -12.79584
     30       2.00000          -0.457344          -12.44496
     31       2.00000          -0.447456          -12.17589
     32       2.00000          -0.434730          -11.82960
     33       2.00000          -0.433578          -11.79826
     34       2.00000          -0.423343          -11.51975
     35       2.00000          -0.415284          -11.30045
     36       2.00000          -0.402795          -10.96062
     37       2.00000          -0.397066          -10.80471
     38       2.00000          -0.383770          -10.44292
     39       2.00000          -0.363510           -9.89162
     40       2.00000          -0.359446           -9.78102
     41       2.00000          -0.350163           -9.52841
     42       2.00000          -0.348687           -9.48826
     43       2.00000          -0.344407           -9.37179
     44       2.00000          -0.338506           -9.21123
     45       2.00000          -0.338016           -9.19789
     46       2.00000          -0.334936           -9.11406
     47       2.00000          -0.328085           -8.92765
     48       2.00000          -0.317308           -8.63439
     49       2.00000          -0.300929           -8.18869
     50       2.00000          -0.272585           -7.41741
     51       0.00000           0.015015            0.40857
     52       0.00000           0.033878            0.92187
     53       0.00000           0.038710            1.05335
     54       0.00000           0.045562            1.23980
     55       0.00000           0.046402            1.26267
     56       0.00000           0.050497            1.37408
     57       0.00000           0.054884            1.49347
     58       0.00000           0.057203            1.55657
     59       0.00000           0.063655            1.73214
     60       0.00000           0.076434            2.07988
     61       0.00000           0.085817            2.33519
     62       0.00000           0.093251            2.53750
     63       0.00000           0.095606            2.60157
     64       0.00000           0.101433            2.76014
     65       0.00000           0.108759            2.95949
     66       0.00000           0.116005            3.15667
     67       0.00000           0.120324            3.27418
     68       0.00000           0.120902            3.28992
     69       0.00000           0.124157            3.37848
     70       0.00000           0.135255            3.68047
     71       0.00000           0.137301            3.73614
     72       0.00000           0.143952            3.91713
     73       0.00000           0.146152            3.97699
     74       0.00000           0.152225            4.14227
     75       0.00000           0.154248            4.19730
     76       0.00000           0.160604            4.37026
     77       0.00000           0.180432            4.90981
     78       0.00000           0.182485            4.96566
     79       0.00000           0.192561            5.23986
     80       0.00000           0.202152            5.50083
     81       0.00000           0.206622            5.62246
     82       0.00000           0.215354            5.86007
     83       0.00000           0.218756            5.95266
     84       0.00000           0.220928            6.01175
     85       0.00000           0.226454            6.16213
     86       0.00000           0.227499            6.19056
     87       0.00000           0.236367            6.43187
     88       0.00000           0.251612            6.84672
     89       0.00000           0.254421            6.92316
     90       0.00000           0.255804            6.96079
     91       0.00000           0.266471            7.25106
     92       0.00000           0.267709            7.28473
     93       0.00000           0.275300            7.49129
     94       0.00000           0.278389            7.57536
     95       0.00000           0.290570            7.90681
     96       0.00000           0.296820            8.07687
     97       0.00000           0.301191            8.19581
     98       0.00000           0.308689            8.39986
     99       0.00000           0.311855            8.48602
    100       0.00000           0.321555            8.74997
    101       0.00000           0.327671            8.91638
    102       0.00000           0.341026            9.27980
    103       0.00000           0.346522            9.42933
    104       0.00000           0.349449            9.50898
    105       0.00000           0.358884            9.76573
    106       0.00000           0.361502            9.83698
    107       0.00000           0.366533            9.97387
    108       0.00000           0.371481           10.10852
    109       0.00000           0.386242           10.51019
    110       0.00000           0.392093           10.66938
    111       0.00000           0.394254           10.72821
    112       0.00000           0.399520           10.87150
    113       0.00000           0.402487           10.95222
    114       0.00000           0.402966           10.96528
    115       0.00000           0.407726           11.09478
    116       0.00000           0.409935           11.15491
    117       0.00000           0.416875           11.34375
    118       0.00000           0.422976           11.50977
    119       0.00000           0.428601           11.66283
    120       0.00000           0.434156           11.81398
    121       0.00000           0.442115           12.03055
    122       0.00000           0.445839           12.13189

  Highest occupied state (VBM) at     -7.41740951 eV
  | Occupation number:      2.00000000

  Lowest unoccupied state (CBM) at     0.40857432 eV
  | Occupation number:      0.00000000

  Overall HOMO-LUMO gap:      7.82598383 eV.

  Total energy components:
  | Sum of eigenvalues            :        -320.41716552 Ha       -8718.99469126 eV
  | XC energy correction          :         -41.45908517 Ha       -1128.15910755 eV
  | XC potential correction       :          78.03794199 Ha        2123.52044512 eV
  | Free-atom electrostatic energy:        -241.03223740 Ha       -6558.82088884 eV
  | Hartree energy correction     :         -21.10837947 Ha        -574.38822987 eV
  | Entropy correction            :          -0.00000000 Ha          -0.00000000 eV
  | ---------------------------
  | Total energy                  :        -545.97892556 Ha      -14856.84247240 eV
  | Total energy, T -> 0          :        -545.97892556 Ha      -14856.84247240 eV  <-- do not rely on this value for anything but (periodic) metals
  | Electronic free energy        :        -545.97892556 Ha      -14856.84247240 eV

  Derived energy quantities:
  | Kinetic energy                :         543.64391556 Ha       14793.30361750 eV
  | Electrostatic energy          :       -1009.71905047 Ha      -27475.85331929 eV
  | Energy correction for multipole
  | error in Hartree potential    :          -0.05219483 Ha          -1.42029372 eV
  | Sum of eigenvalues per atom                           :        -242.19429698 eV
  | Total energy (T->0) per atom                          :        -412.69006868 eV  <-- do not rely on this value for anything but (periodic) metals
  | Electronic free energy per atom                       :        -412.69006868 eV

  Self-consistency convergence accuracy:
  | Change of charge density      :  0.6089E-05
  | Change of unmixed KS density  :  0.6184E-05
  | Change of sum of eigenvalues  :  0.1676E-02 eV
  | Change of total energy        : -0.1968E-04 eV

  Writing Kohn-Sham eigenvalues.

  State    Occupation    Eigenvalue [Ha]    Eigenvalue [eV]
      1       2.00000         -19.249047         -523.79322
      2       2.00000         -19.218681         -522.96691
      3       2.00000         -10.285159         -279.87342
      4       2.00000         -10.264337         -279.30682
      5       2.00000         -10.231876         -278.42351
      6       2.00000         -10.231557         -278.41483
      7       2.00000         -10.230792         -278.39401
      8       2.00000         -10.222557         -278.16993
      9       2.00000         -10.221071         -278.12949
     10       2.00000         -10.220954         -278.12630
     11       2.00000         -10.217134         -278.02236
     12       2.00000         -10.214840         -277.95995
     13       2.00000          -1.061215          -28.87712
     14       2.00000          -1.036787          -28.21242
     15       2.00000          -0.833476          -22.68004
     16       2.00000          -0.821511          -22.35446
     17       2.00000          -0.776516          -21.13007
     18       2.00000          -0.762931          -20.76042
     19       2.00000          -0.697782          -18.98762
     20       2.00000          -0.682543          -18.57295
     21       2.00000          -0.620744          -16.89130
     22       2.00000          -0.607107          -16.52022
     23       2.00000          -0.599971          -16.32603
     24       2.00000          -0.587766          -15.99394
     25       2.00000          -0.535913          -14.58293
     26       2.00000          -0.514851          -14.00981
     27       2.00000          -0.505889          -13.76594
     28       2.00000          -0.493393          -13.42591
     29       2.00000          -0.470238          -12.79584
     30       2.00000          -0.457344          -12.44496
     31       2.00000          -0.447456          -12.17589
     32       2.00000          -0.434730          -11.82960
     33       2.00000          -0.433578          -11.79826
     34       2.00000          -0.423343          -11.51975
     35       2.00000          -0.415284          -11.30045
     36       2.00000          -0.402795          -10.96062
     37       2.00000          -0.397066          -10.80471
     38       2.00000          -0.383770          -10.44292
     39       2.00000          -0.363510           -9.89162
     40       2.00000          -0.359446           -9.78102
     41       2.00000          -0.350163           -9.52841
     42       2.00000          -0.348687           -9.48826
     43       2.00000          -0.344407           -9.37179
     44       2.00000          -0.338506           -9.21123
     45       2.00000          -0.338016           -9.19789
     46       2.00000          -0.334936           -9.11406
     47       2.00000          -0.328085           -8.92765
     48       2.00000          -0.317308           -8.63439
     49       2.00000          -0.300929           -8.18869
     50       2.00000          -0.272585           -7.41741
     51       0.00000           0.015015            0.40857
     52       0.00000           0.033878            0.92187
     53       0.00000           0.038710            1.05335
     54       0.00000           0.045562            1.23980
     55       0.00000           0.046402            1.26267
     56       0.00000           0.050497            1.37408
     57       0.00000           0.054884            1.49347
     58       0.00000           0.057203            1.55657
     59       0.00000           0.063655            1.73214
     60       0.00000           0.076434            2.07988
     61       0.00000           0.085817            2.33519
     62       0.00000           0.093251            2.53750
     63       0.00000           0.095606            2.60157
     64       0.00000           0.101433            2.76014
     65       0.00000           0.108759            2.95949
     66       0.00000           0.116005            3.15667
     67       0.00000           0.120324            3.27418
     68       0.00000           0.120902            3.28992
     69       0.00000           0.124157            3.37848
     70       0.00000           0.135255            3.68047
     71       0.00000           0.137301            3.73614
     72       0.00000           0.143952            3.91713
     73       0.00000           0.146152            3.97699
     74       0.00000           0.152225            4.14227
     75       0.00000           0.154248            4.19730
     76       0.00000           0.160604            4.37026
     77       0.00000           0.180432            4.90981
     78       0.00000           0.182485            4.96566
     79       0.00000           0.192561            5.23986
     80       0.00000           0.202152            5.50083
     81       0.00000           0.206622            5.62246
     82       0.00000           0.215354            5.86007
     83       0.00000           0.218756            5.95266
     84       0.00000           0.220928            6.01175
     85       0.00000           0.226454            6.16213
     86       0.00000           0.227499            6.19056
     87       0.00000           0.236367            6.43187
     88       0.00000           0.251612            6.84672
     89       0.00000           0.254421            6.92316
     90       0.00000           0.255804            6.96079
     91       0.00000           0.266471            7.25106
     92       0.00000           0.267709            7.28473
     93       0.00000           0.275300            7.49129
     94       0.00000           0.278389            7.57536
     95       0.00000           0.290570            7.90681
     96       0.00000           0.296820            8.07687
     97       0.00000           0.301191            8.19581
     98       0.00000           0.308689            8.39986
     99       0.00000           0.311855            8.48602
    100       0.00000           0.321555            8.74997
    101       0.00000           0.327671            8.91638
    102       0.00000           0.341026            9.27980
    103       0.00000           0.346522            9.42933
    104       0.00000           0.349449            9.50898
    105       0.00000           0.358884            9.76573
    106       0.00000           0.361502            9.83698
    107       0.00000           0.366533            9.97387
    108       0.00000           0.371481           10.10852
    109       0.00000           0.386242           10.51019
    110       0.00000           0.392093           10.66938
    111       0.00000           0.394254           10.72821
    112       0.00000           0.399520           10.87150
    113       0.00000           0.402487           10.95222
    114       0.00000           0.402966           10.96528
    115       0.00000           0.407726           11.09478
    116       0.00000           0.409935           11.15491
    117       0.00000           0.416875           11.34375
    118       0.00000           0.422976           11.50977
    119       0.00000           0.428601           11.66283
    120       0.00000           0.434156           11.81398
    121       0.00000           0.442115           12.03055
    122       0.00000           0.445839           12.13189

  Highest occupied state (VBM) at     -7.41740951 eV
  | Occupation number:      2.00000000

  Lowest unoccupied state (CBM) at     0.40857432 eV
  | Occupation number:      0.00000000

  Overall HOMO-LUMO gap:      7.82598383 eV.

  | Chemical Potential                          :    -3.50441759 eV
  | Note that, for insulating systems, the printed 'chemical potential' value is not uniquely defined.
  | It can be anywhere in the energy gap, as long as it correctly separates occupied and unoccupied states.
  | In systems with a gap, the physically relevant chemical potential is the VBM or HOMO.

  Self-consistency cycle converged.


------------------------------------------------------------
  End self-consistency iteration #    16       :  max(cpu_time)    wall_clock(cpu1)
  | Time for this iteration                     :        1.866 s           1.867 s
  | Charge density update                       :        0.000 s           0.000 s
  | Density mixing                              :        0.006 s           0.006 s
  | Hartree multipole update                    :        0.006 s           0.006 s
  | Hartree multipole summation                 :        0.122 s           0.122 s
  | Integration                                 :        0.283 s           0.283 s
  | Fock matrix evaluation                      :        1.393 s           1.393 s
  | Solution of K.-S. eqns.                     :        0.049 s           0.049 s
  | Total energy evaluation                     :        0.000 s           0.000 s

  Partial memory accounting:
  | Current value for overall tracked memory usage:
  |   Minimum:       30.824 MB (on task  35)
  |   Maximum:       63.656 MB (on task   9)
