------------------------------------------------------------
          Invoking FHI-aims ...

          When using FHI-aims, please cite the following reference:

            Volker Blum, Ralf Gehrke, Felix Hanke, Paula Havu,
            Ville Havu, Xinguo Ren, Karsten Reuter, and Matthias Scheffler,
            'Ab Initio Molecular Simulations with Numeric Atom-Centered Orbitals',
            Computer Physics Communications 180, 2175-2196 (2009)

          In addition, many other developments in FHI-aims are likely important for
          your particular application. If so, please cite them. A partial list of references
          is written at the end of this file. Thank you for giving credit to the authors
          of these developments.

          For general information about FHI-aims please find us at

            https://fhi-aims.org

          Online tutorials can be found at

            https://fhi-aims-club.gitlab.io/tutorials/tutorials-overview/

          For any questions about FHI-aims, please visit our slack channel at

            https://fhi-aims.slack.com

          and our main development and support site at

            https://aims-git.rz-berlin.mpg.de .

          The latter site, in particular, has a wiki to collect information, as well
          as an issue tracker to log discussions, suggest improvements, and report issues
          or bugs. https://aims-git.rz-berlin.mpg.de is also the main development site
          of the project and all new and updated code versions can be obtained there.
          Please send an email to aims-coordinators@fhi-berlin.mpg.de and we will add
          you to these sites. They are for you and everyone is welcome there.

------------------------------------------------------------



  Date     :  20250628, Time     :  162746.102
  Time zero on CPU 1             :   0.485771460000000E+02  s.
  Internal wall clock time zero  :           520360066.102  s.

  FHI-aims created a unique identifier for this run for later identification
  aims_uuid : 3CD6F7B4-83DB-467C-AF44-6A87B1F418AB

  Build configuration of the current instance of FHI-aims
  -------------------------------------------------------
  FHI-aims version      : 250403
  Commit number         : 316072d87
  CMake host system     : Linux-5.14.21-150400.24.46_12.0.70-cray_shasta_c
  CMake version         : 3.20.4
  Fortran compiler      : /opt/cray/pe/craype/2.7.19/bin/ftn (GNU) version 11.2.0
  Fortran compiler flags: -O2 -fPIC -fallow-argument-mismatch -ffree-line-length-none
  C compiler            : /opt/cray/pe/craype/2.7.19/bin/cc (GNU) version 11.2.0
  C compiler flags      : -O2
  C++ compiler          : /opt/cray/pe/gcc/11.2.0/bin/c++ (GNU) version 11.2.0
  C++ compiler flags    : -O2
  HIP compiler          :
  HIP compiler flags    :
  HIP GPU arch          :
  Using MPI
  Using ScaLAPACK
  Using LibXC
  Using i-PI
  Using RLSY
  Linking against:

  Using      256 parallel tasks.
  Task        0 on host nid001208 reporting.
  Task        1 on host nid001208 reporting.
  Task        2 on host nid001208 reporting.
  Task        3 on host nid001208 reporting.
  Task        4 on host nid001208 reporting.
  Task        5 on host nid001208 reporting.
  Task        6 on host nid001208 reporting.
  Task        7 on host nid001208 reporting.
  Task        8 on host nid001208 reporting.
  Task        9 on host nid001208 reporting.
  Task       10 on host nid001208 reporting.
  Task       11 on host nid001208 reporting.
  Task       12 on host nid001208 reporting.
  Task       13 on host nid001208 reporting.
  Task       14 on host nid001208 reporting.
  Task       15 on host nid001208 reporting.
  Task       16 on host nid001208 reporting.
  Task       17 on host nid001208 reporting.
  Task       18 on host nid001208 reporting.
  Task       19 on host nid001208 reporting.
  Task       20 on host nid001208 reporting.
  Task       21 on host nid001208 reporting.
  Task       22 on host nid001208 reporting.
  Task       23 on host nid001208 reporting.
  Task       24 on host nid001208 reporting.
  Task       25 on host nid001208 reporting.
  Task       26 on host nid001208 reporting.
  Task       27 on host nid001208 reporting.
  Task       28 on host nid001208 reporting.
  Task       29 on host nid001208 reporting.
  Task       30 on host nid001208 reporting.
  Task       31 on host nid001208 reporting.
  Task       32 on host nid001208 reporting.
  Task       33 on host nid001208 reporting.
  Task       34 on host nid001208 reporting.
  Task       35 on host nid001208 reporting.
  Task       36 on host nid001208 reporting.
  Task       37 on host nid001208 reporting.
  Task       38 on host nid001208 reporting.
  Task       39 on host nid001208 reporting.
  Task       40 on host nid001208 reporting.
  Task       41 on host nid001208 reporting.
  Task       42 on host nid001208 reporting.
  Task       43 on host nid001208 reporting.
  Task       44 on host nid001208 reporting.
  Task       45 on host nid001208 reporting.
  Task       46 on host nid001208 reporting.
  Task       47 on host nid001208 reporting.
  Task       48 on host nid001208 reporting.
  Task       49 on host nid001208 reporting.
  Task       50 on host nid001208 reporting.
  Task       51 on host nid001208 reporting.
  Task       52 on host nid001208 reporting.
  Task       53 on host nid001208 reporting.
  Task       54 on host nid001208 reporting.
  Task       55 on host nid001208 reporting.
  Task       56 on host nid001208 reporting.
  Task       57 on host nid001208 reporting.
  Task       58 on host nid001208 reporting.
  Task       59 on host nid001208 reporting.
  Task       60 on host nid001208 reporting.
  Task       61 on host nid001208 reporting.
  Task       62 on host nid001208 reporting.
  Task       63 on host nid001208 reporting.
  Task       64 on host nid001208 reporting.
  Task       65 on host nid001208 reporting.
  Task       66 on host nid001208 reporting.
  Task       67 on host nid001208 reporting.
  Task       68 on host nid001208 reporting.
  Task       69 on host nid001208 reporting.
  Task       70 on host nid001208 reporting.
  Task       71 on host nid001208 reporting.
  Task       72 on host nid001208 reporting.
  Task       73 on host nid001208 reporting.
  Task       74 on host nid001208 reporting.
  Task       75 on host nid001208 reporting.
  Task       76 on host nid001208 reporting.
  Task       77 on host nid001208 reporting.
  Task       78 on host nid001208 reporting.
  Task       79 on host nid001208 reporting.
  Task       80 on host nid001208 reporting.
  Task       81 on host nid001208 reporting.
  Task       82 on host nid001208 reporting.
  Task       83 on host nid001208 reporting.
  Task       84 on host nid001208 reporting.
  Task       85 on host nid001208 reporting.
  Task       86 on host nid001208 reporting.
  Task       87 on host nid001208 reporting.
  Task       88 on host nid001208 reporting.
  Task       89 on host nid001208 reporting.
  Task       90 on host nid001208 reporting.
  Task       91 on host nid001208 reporting.
  Task       92 on host nid001208 reporting.
  Task       93 on host nid001208 reporting.
  Task       94 on host nid001208 reporting.
  Task       95 on host nid001208 reporting.
  Task       96 on host nid001208 reporting.
  Task       97 on host nid001208 reporting.
  Task       98 on host nid001208 reporting.
  Task       99 on host nid001208 reporting.
  Task      100 on host nid001208 reporting.
  Task      101 on host nid001208 reporting.
  Task      102 on host nid001208 reporting.
  Task      103 on host nid001208 reporting.
  Task      104 on host nid001208 reporting.
  Task      105 on host nid001208 reporting.
  Task      106 on host nid001208 reporting.
  Task      107 on host nid001208 reporting.
  Task      108 on host nid001208 reporting.
  Task      109 on host nid001208 reporting.
  Task      110 on host nid001208 reporting.
  Task      111 on host nid001208 reporting.
  Task      112 on host nid001208 reporting.
  Task      113 on host nid001208 reporting.
  Task      114 on host nid001208 reporting.
  Task      115 on host nid001208 reporting.
  Task      116 on host nid001208 reporting.
  Task      117 on host nid001208 reporting.
  Task      118 on host nid001208 reporting.
  Task      119 on host nid001208 reporting.
  Task      120 on host nid001208 reporting.
  Task      121 on host nid001208 reporting.
  Task      122 on host nid001208 reporting.
  Task      123 on host nid001208 reporting.
  Task      124 on host nid001208 reporting.
  Task      125 on host nid001208 reporting.
  Task      126 on host nid001208 reporting.
  Task      127 on host nid001208 reporting.
  Task      128 on host nid001209 reporting.
  Task      129 on host nid001209 reporting.
  Task      130 on host nid001209 reporting.
  Task      131 on host nid001209 reporting.
  Task      132 on host nid001209 reporting.
  Task      133 on host nid001209 reporting.
  Task      134 on host nid001209 reporting.
  Task      135 on host nid001209 reporting.
  Task      136 on host nid001209 reporting.
  Task      137 on host nid001209 reporting.
  Task      138 on host nid001209 reporting.
  Task      139 on host nid001209 reporting.
  Task      140 on host nid001209 reporting.
  Task      141 on host nid001209 reporting.
  Task      142 on host nid001209 reporting.
  Task      143 on host nid001209 reporting.
  Task      144 on host nid001209 reporting.
  Task      145 on host nid001209 reporting.
  Task      146 on host nid001209 reporting.
  Task      147 on host nid001209 reporting.
  Task      148 on host nid001209 reporting.
  Task      149 on host nid001209 reporting.
  Task      150 on host nid001209 reporting.
  Task      151 on host nid001209 reporting.
  Task      152 on host nid001209 reporting.
  Task      153 on host nid001209 reporting.
  Task      154 on host nid001209 reporting.
  Task      155 on host nid001209 reporting.
  Task      156 on host nid001209 reporting.
  Task      157 on host nid001209 reporting.
  Task      158 on host nid001209 reporting.
  Task      159 on host nid001209 reporting.
  Task      160 on host nid001209 reporting.
  Task      161 on host nid001209 reporting.
  Task      162 on host nid001209 reporting.
  Task      163 on host nid001209 reporting.
  Task      164 on host nid001209 reporting.
  Task      165 on host nid001209 reporting.
  Task      166 on host nid001209 reporting.
  Task      167 on host nid001209 reporting.
  Task      168 on host nid001209 reporting.
  Task      169 on host nid001209 reporting.
  Task      170 on host nid001209 reporting.
  Task      171 on host nid001209 reporting.
  Task      172 on host nid001209 reporting.
  Task      173 on host nid001209 reporting.
  Task      174 on host nid001209 reporting.
  Task      175 on host nid001209 reporting.
  Task      176 on host nid001209 reporting.
  Task      177 on host nid001209 reporting.
  Task      178 on host nid001209 reporting.
  Task      179 on host nid001209 reporting.
  Task      180 on host nid001209 reporting.
  Task      181 on host nid001209 reporting.
  Task      182 on host nid001209 reporting.
  Task      183 on host nid001209 reporting.
  Task      184 on host nid001209 reporting.
  Task      185 on host nid001209 reporting.
  Task      186 on host nid001209 reporting.
  Task      187 on host nid001209 reporting.
  Task      188 on host nid001209 reporting.
  Task      189 on host nid001209 reporting.
  Task      190 on host nid001209 reporting.
  Task      191 on host nid001209 reporting.
  Task      192 on host nid001209 reporting.
  Task      193 on host nid001209 reporting.
  Task      194 on host nid001209 reporting.
  Task      195 on host nid001209 reporting.
  Task      196 on host nid001209 reporting.
  Task      197 on host nid001209 reporting.
  Task      198 on host nid001209 reporting.
  Task      199 on host nid001209 reporting.
  Task      200 on host nid001209 reporting.
  Task      201 on host nid001209 reporting.
  Task      202 on host nid001209 reporting.
  Task      203 on host nid001209 reporting.
  Task      204 on host nid001209 reporting.
  Task      205 on host nid001209 reporting.
  Task      206 on host nid001209 reporting.
  Task      207 on host nid001209 reporting.
  Task      208 on host nid001209 reporting.
  Task      209 on host nid001209 reporting.
  Task      210 on host nid001209 reporting.
  Task      211 on host nid001209 reporting.
  Task      212 on host nid001209 reporting.
  Task      213 on host nid001209 reporting.
  Task      214 on host nid001209 reporting.
  Task      215 on host nid001209 reporting.
  Task      216 on host nid001209 reporting.
  Task      217 on host nid001209 reporting.
  Task      218 on host nid001209 reporting.
  Task      219 on host nid001209 reporting.
  Task      220 on host nid001209 reporting.
  Task      221 on host nid001209 reporting.
  Task      222 on host nid001209 reporting.
  Task      223 on host nid001209 reporting.
  Task      224 on host nid001209 reporting.
  Task      225 on host nid001209 reporting.
  Task      226 on host nid001209 reporting.
  Task      227 on host nid001209 reporting.
  Task      228 on host nid001209 reporting.
  Task      229 on host nid001209 reporting.
  Task      230 on host nid001209 reporting.
  Task      231 on host nid001209 reporting.
  Task      232 on host nid001209 reporting.
  Task      233 on host nid001209 reporting.
  Task      234 on host nid001209 reporting.
  Task      235 on host nid001209 reporting.
  Task      236 on host nid001209 reporting.
  Task      237 on host nid001209 reporting.
  Task      238 on host nid001209 reporting.
  Task      239 on host nid001209 reporting.
  Task      240 on host nid001209 reporting.
  Task      241 on host nid001209 reporting.
  Task      242 on host nid001209 reporting.
  Task      243 on host nid001209 reporting.
  Task      244 on host nid001209 reporting.
  Task      245 on host nid001209 reporting.
  Task      246 on host nid001209 reporting.
  Task      247 on host nid001209 reporting.
  Task      248 on host nid001209 reporting.
  Task      249 on host nid001209 reporting.
  Task      250 on host nid001209 reporting.
  Task      251 on host nid001209 reporting.
  Task      252 on host nid001209 reporting.
  Task      253 on host nid001209 reporting.
  Task      254 on host nid001209 reporting.
  Task      255 on host nid001209 reporting.

  Obtaining array dimensions for all initial allocations:
  
  -----------------------------------------------------------------------
  Parsing control.in (first pass over file, find array dimensions only).
  The contents of control.in will be repeated verbatim below
  unless switched off by setting 'verbatim_writeout .false.' .
  in the first line of control.in .
  -----------------------------------------------------------------------
  
  #===============================================================================
  # Created using the Atomic Simulation Environment (ASE)
  
  # Sat Jun 28 16:27:46 2025
  
  #===============================================================================
  xc                                 PBE
  relativistic                       atomic_zora scalar
  occupation_type                    gaussian 0.01
  mixer                              pulay
  KS_method                          parallel
  RI_method                          LVL
  n_max_pulay                        10
  collect_eigenvectors               .true.
  density_update_method              density_matrix
  lmo_pm_charge_metric               mulliken
  atomic_solver_xc                   PBE
  basis_threshold                    1e-05
  override_illconditioning           .true.
  override_initial_charge_check      .true.
  frequency_points                   50
  use_2d_corr                        .false.
  total_energy_method                rpa
  qm_embedding_mo_localise           .true.
  qm_embedding_calc                  3
  charge                             -2.0000000000000426
  #===============================================================================
  
  ################################################################################
  #
  #  FHI-aims code project
  # Igor Ying Zhang and Xinguo Ren, Fritz Haber Institute Berlin, 2012
  #
  #  Suggested "NAO-VCC-4Z" defaults for O atom (to be pasted into control.in file)
  #
  #  Please cite:
  #
  #  Igor Ying Zhang, Xinguo Ren, Patrick Rinke, Volker Blum, and Matthias Scheffler,
  #  "Numeric atom-centered-orbital basis sets with valence-correlation consistency from H to Ar"
  #  New Journal of Physics 15, 123033 (2013).
  #  http://dx.doi.org/10.1088/1367-2630/15/12/123033
  #
  ################################################################################
    species        O
  #     set basis set reference for FHI-aims output
      cite_reference NAO-VCC-2013
  #     global species definitions
      nucleus             8
      mass                15.9994
  #
      l_hartree           6
  #
      cut_pot             4.0  2.0  1.0
      basis_dep_cutoff    0e-4
  #
      radial_base         36 7.0
      radial_multiplier   2
      angular_grids       specified
        division   0.1817   50
        division   0.3417  110
        division   0.4949  194
        division   0.6251  302
        division   0.8014  434
        division   0.8507  590
  #      division   0.8762  770
  #      division   0.9023  974
  #      division   1.2339 1202
  #      outer_grid 974
        outer_grid 770
  #      outer_grid  434
  ################################################################################
  #
  #  Definition of "minimal" basis
  #
  ################################################################################
  #     valence basis states
      valence      2  s   2.
      valence      2  p   4.
  #     ion occupancy
      ion_occ      2  s   1.
      ion_occ      2  p   3.
  ################################################################################
  
   basis_acc              1e-04
  #============================================
  # Optimization in      O for       NAO-VCC-4Z
  #============================================
  # (sp) correlation set
   hydro     1     s      1.97025429
   hydro     1     s      3.00715580
   hydro     1     s      4.58975577
   hydro     2     p      2.37547698
   hydro     2     p      4.13958594
   hydro     2     p      7.21378144
  # polarization set
   hydro     3     d      7.17199177
   hydro     3     d     10.00249673
   hydro     3     d     13.95009140
   hydro     4     f     13.01612808
   hydro     4     f     16.02897865
   hydro     5     g     21.81608270
  # (sp) enhanced minimal basis
   hydro     1     s      9.96117536
   hydro     1     s     15.55417882
   hydro     2     p      7.62429018
  ################################################################################
  #
  #  FHI-aims code project
  # Igor Ying Zhang and Xinguo Ren, Fritz Haber Institute Berlin, 2012
  #
  #  Suggested "NAO-VCC-4Z" defaults for H atom (to be pasted into control.in file)
  #
  #  Please cite:
  #
  #  Igor Ying Zhang, Xinguo Ren, Patrick Rinke, Volker Blum, and Matthias Scheffler,
  #  "Numeric atom-centered-orbital basis sets with valence-correlation consistency from H to Ar"
  #  New Journal of Physics 15, 123033 (2013).
  #  http://dx.doi.org/10.1088/1367-2630/15/12/123033
  #
  ################################################################################
    species        H
  #     set basis set reference for FHI-aims output
      cite_reference NAO-VCC-2013
  #     global species definitions
      nucleus             1
      mass                1.00794
  #
      l_hartree           6
  #
      cut_pot             4.0  2.0  1.0
      basis_dep_cutoff    0e-4
  #
      radial_base         24 7.0
      radial_multiplier   2
      angular_grids       specified
        division   0.1930   50
        division   0.3175  110
        division   0.4293  194
        division   0.5066  302
        division   0.5626  434
        division   0.5922  590
  #      division   0.6227  974
  #      division   0.6868 1202
        outer_grid  770
  #      outer_grid  434
  ################################################################################
  #
  #  Definition of "minimal" basis
  #
  ################################################################################
  #     valence basis states
      valence      1  s   1.
  #     ion occupancy
      ion_occ      1  s   0.5
  ################################################################################
  
  
   basis_acc              1e-04
  #============================================
  # Optimization in      H for       NAO-VCC-4Z
  #============================================
  # (sp) correlation set
   hydro     1     s      1.15655525
   hydro     1     s      1.68684502
   hydro     1     s      2.46027686
   hydro     2     p      2.92145897
   hydro     2     p      4.14501835
   hydro     2     p      5.88102632
  # polarization set
   hydro     3     d      6.41446874
   hydro     3     d      7.67536483
   hydro     4     f     10.80870049
  # (sp) enhanced minimal set
   hydro     1     s      3.58833335
  ################################################################################
  #
  #  FHI-aims code project
  # Igor Ying Zhang and Xinguo Ren, Fritz Haber Institute Berlin, 2012
  #
  #  Suggested "NAO-VCC-4Z" defaults for C atom (to be pasted into control.in file)
  #
  #  Please cite:
  #
  #  Igor Ying Zhang, Xinguo Ren, Patrick Rinke, Volker Blum, and Matthias Scheffler,
  #  "Numeric atom-centered-orbital basis sets with valence-correlation consistency from H to Ar"
  #  New Journal of Physics 15, 123033 (2013).
  #  http://dx.doi.org/10.1088/1367-2630/15/12/123033
  #
  ################################################################################
    species        C
  #     set basis set reference for FHI-aims output
      cite_reference NAO-VCC-2013
  #     global species definitions
      nucleus             6
      mass                12.0107
  #
      l_hartree           6
  #
      cut_pot             4.0  2.0  1.0
      basis_dep_cutoff    0e-4
  #
      radial_base         34 7.0
      radial_multiplier   2
      angular_grids       specified
        division   0.2187   50
        division   0.4416  110
        division   0.6335  194
        division   0.7727  302
        division   0.8772  434
        division   0.9334  590
  #      division   0.9924  770
  #      division   1.0230  974
  #      division   1.5020 1202
  #      outer_grid  974
        outer_grid  770
  #      outer_grid  434
  ################################################################################
  #
  #  Definition of "minimal" basis
  #
  ################################################################################
  #     valence basis states
      valence      2  s   2.
      valence      2  p   2.
  #     ion occupancy
      ion_occ      2  s   1.
      ion_occ      2  p   1.
  ################################################################################
  
   basis_acc              1e-04
  #============================================
  # Optimization in      C for       NAO-VCC-4Z
  #============================================
  # (sp) correlation set
   hydro     1     s      1.59552887
   hydro     1     s      3.22975008
   hydro     1     s      6.53782314
   hydro     2     p      1.88700333
   hydro     2     p      4.55825829
   hydro     2     p     11.01096026
  # polarization set
   hydro     3     d      5.23072384
   hydro     3     d      7.65256819
   hydro     3     d     11.19573537
   hydro     4     f     10.64515589
   hydro     4     f     10.80040634
   hydro     5     g     15.74137862
  # (sp) enhanced minimal set
   hydro     1     s     13.75313803
   hydro     1     s     25.85761452
   hydro     2     p     10.26613499
  
  -----------------------------------------------------------------------
  Completed first pass over input file control.in .
  -----------------------------------------------------------------------
  
  
  -----------------------------------------------------------------------
  Parsing geometry.in (first pass over file, find array dimensions only).
  The contents of geometry.in will be repeated verbatim below
  unless switched off by setting 'verbatim_writeout .false.' .
  in the first line of geometry.in .
  -----------------------------------------------------------------------
  
  #===============================================================================
  # Created using the Atomic Simulation Environment (ASE)
  
  # Sat Jun 28 16:27:46 2025
  
  #=======================================================
  atom -3.0770814899999999 0.5619469700000000 -0.6462625600000000 O
  qm_embedding_region 1
  atom -3.8021152499999999 1.1773607800000001 -0.4590877000000000 H
  qm_embedding_region 1
  atom -4.3595134599999996 -1.7049052300000000 1.4432162799999999 O
  qm_embedding_region 1
  atom -3.9924159399999999 -1.1090525200000001 0.7498436300000000 H
  qm_embedding_region 1
  empty -0.6965785400000000 0.3137215200000000 -0.7341223500000000 C
  qm_embedding_region 2
  empty -1.8544695099999999 1.1590117200000001 -0.2170698700000000 C
  qm_embedding_region 2
  empty 0.6599427600000000 0.8097782100000001 -0.2529257900000000 C
  qm_embedding_region 2
  empty 3.1749567999999999 0.4386692500000000 -0.2848930000000000 C
  qm_embedding_region 2
  empty 3.3277454000000000 1.5073589700000001 -0.4653185400000000 H
  qm_embedding_region 2
  empty 1.7931219700000001 0.0216980700000000 -1.8933493699999999 H
  qm_embedding_region 2
  empty 1.6533919500000001 -1.0744005700000001 -0.5205189400000000 H
  qm_embedding_region 2
  empty 0.7879019600000000 1.8586694600000000 -0.5565398499999999 H
  qm_embedding_region 2
  empty 0.6701216800000001 0.7913352299999999 0.8462247000000001 H
  qm_embedding_region 2
  empty -0.7088985400000000 0.3092913000000000 -1.8345980900000001 H
  qm_embedding_region 2
  empty 3.9735975799999999 -0.1065005800000000 -0.7930867200000000 H
  qm_embedding_region 2
  empty 1.8177515500000001 -0.0260348900000000 -0.7976639300000000 C
  qm_embedding_region 2
  empty -1.7745093000000001 2.1801826900000001 -0.6188752000000000 H
  qm_embedding_region 2
  empty -0.8236281400000000 -0.7299466400000000 -0.4085575500000000 H
  qm_embedding_region 2
  empty -4.6845105499999997 -7.8507389900000000 2.5391040399999998 C
  qm_embedding_region 2
  empty -1.8207492900000000 1.1977603600000000 0.8829077300000000 H
  qm_embedding_region 2
  empty -4.9447976200000001 -6.3895239899999998 2.8815860899999999 C
  qm_embedding_region 2
  empty -4.5689247899999996 -5.4397207300000003 1.7433153400000001 C
  qm_embedding_region 2
  empty -4.7738726199999997 -3.9732622100000001 2.0937187399999999 C
  qm_embedding_region 2
  empty -4.2734860000000001 -3.0275456400000000 0.9967403700000000 C
  qm_embedding_region 2
  empty -4.9300196999999999 -8.4848734300000004 3.3940723899999998 H
  qm_embedding_region 2
  empty -5.2952672999999999 -8.1754948600000006 1.6906695100000000 H
  qm_embedding_region 2
  empty -3.6319166200000002 -8.0147405999999997 2.2870404899999999 H
  qm_embedding_region 2
  empty -4.3709652500000002 -6.1047659400000001 3.7718493500000001 H
  qm_embedding_region 2
  empty -6.0040426199999999 -6.2421081999999997 3.1224893699999998 H
  qm_embedding_region 2
  empty -3.5150274399999999 -5.5961320199999998 1.4721294500000000 H
  qm_embedding_region 2
  empty -5.1672109199999996 -5.6798084500000003 0.8526411400000000 H
  qm_embedding_region 2
  empty 3.2748969899999998 0.2554273300000000 0.7898963500000000 H
  qm_embedding_region 2
  empty -4.2535942499999999 -3.7521138500000002 3.0373312900000000 H
  qm_embedding_region 2
  empty -5.8461641899999996 -3.7893040700000000 2.2593167599999999 H
  qm_embedding_region 2
  empty -3.2297188399999999 -3.2888903300000001 0.7496481500000000 H
  qm_embedding_region 2
  empty -4.8928751699999999 -3.1732709600000000 0.0951177300000000 H
  qm_embedding_region 2
  
  -----------------------------------------------------------------------
  Completed first pass over input file geometry.in .
  -----------------------------------------------------------------------
  

  Basic array size parameters:
  | Number of species                 :        3
  | Number of atoms                   :       36
  | Max. basis fn. angular momentum   :        4
  | Max. atomic/ionic basis occupied n:        2
  | Max. number of basis fn. types    :        2
  | Max. radial fns per species/type  :       15
  | Max. logarithmic grid size        :     1301
  | Max. radial integration grid size :       73
  | Max. angular integration grid size:      770
  | Max. angular grid division number :        8
  | Radial grid for Hartree potential :     1301
  | Number of spin channels           :        1

  Definition of standardized fundamental physical constants in this FHI-aims run:
  | Using the set of values used in FHI-aims up to 2024, which combines values from
  | different CODATA sets - see constants.f90.
  | Use the 'codata' keyword in control.in to change this selection.

  Memory overcommitment is allowed on your operating system.

------------------------------------------------------------
          Reading file control.in.
------------------------------------------------------------
  XC: Using PBE gradient-corrected functionals.
  Scalar relativistic treatment of kinetic energy: on-site free-atom approximation to ZORA.
  Occupation type: Gaussian broadening, width =   0.100000E-01 eV.
  Using pulay charge density mixing.
  Kohn-Sham electronic structure solved by the ELSI library.
  The 'LVL' version of RI (resolution of identity) technique is used.
  ** This is a localized expansion of all basis function products.
     Its intended use are Hartree-Fock and hybrid functionals.
     For RPA, MP2, GW, etc., LVL is not yet as accurate. In those cases, check carefully.
  Pulay mixing - number of memorized iterations:   10
  MO localisation with PM objective function calculated with Mulliken charges
  Atomic Solver XC: Using user-defined functional for generating the minimal NAO basis functions.
  Note that only the following functionals are available: kli, pz-lda, pw-lda, vwn, vwn-gauss, pw91_gga, pbe, rpbe, revpbe, pbeint, blyp.
  Threshold for basis singularities:  0.1000E-04
  override_illconditioning: Explicitly overriding any built-in checks for an ill-conditioned overlap matrix.
** WARNING:
  ***  If you use this flag, you should really know what you are doing.
** END OF WARNING
** WARNING:
  *** DO NOT keep this flag set by default in all your control.in files.
** END OF WARNING
  Number of frequency points used for the self-energy calculation:     50
  Old 1D distribution for correlation code.
  RPA correlation energy calculation will be started after the DFT/HF calculation.
  Charged system requested: Charge =  -0.200000E+01.

  Reading configuration options for species O                   .
  | Found nuclear charge :   8.0000
  | Found atomic mass :    15.999400000000000      amu
  | Found l_max for Hartree potential  :   6
  | Found cutoff potl. onset [A], width [A], scale factor :    4.00000    2.00000    1.00000
  | Threshold for basis-dependent cutoff potential is   0.000000E+00
  | Found data for basic radial integration grid :    36 points, outermost radius =    7.000 A
  | Found multiplier for basic radial grid :   2
  | Found angular grid specification: user-specified.
  | Specified grid contains     7 separate shells.
  | Check grid settings after all constraints further below.
  | Found free-atom valence shell :  2 s   2.000
  | Found free-atom valence shell :  2 p   4.000
  | No ionic wave fns used. Skipping ion_occ.
  | No ionic wave fns used. Skipping ion_occ.
  | Found basis singularity cutoff : 0.1000E-03
  | Found hydrogenic basis function :  1 s   1.970
  | Found hydrogenic basis function :  1 s   3.007
  | Found hydrogenic basis function :  1 s   4.590
  | Found hydrogenic basis function :  2 p   2.375
  | Found hydrogenic basis function :  2 p   4.140
  | Found hydrogenic basis function :  2 p   7.214
  | Found hydrogenic basis function :  3 d   7.172
  | Found hydrogenic basis function :  3 d  10.002
  | Found hydrogenic basis function :  3 d  13.950
  | Found hydrogenic basis function :  4 f  13.016
  | Found hydrogenic basis function :  4 f  16.029
  | Found hydrogenic basis function :  5 g  21.816
  | Found hydrogenic basis function :  1 s   9.961
  | Found hydrogenic basis function :  1 s  15.554
  | Found hydrogenic basis function :  2 p   7.624
 | Encountered keyword species, ending the description of species O                   .
  Species O                   : Missing cutoff potential type.
  Defaulting to exp(1/x)/(1-x)^2 type cutoff potential.
  Species O : No 'logarithmic' tag. Using default grid for free atom:
  | Default logarithmic grid data [bohr] : 0.1000E-03 0.1000E+03 0.1012E+01
  Species O                   : Using default innermost maximum threshold i_radial=  2 for radial functions.
  Species O                   : Default cutoff onset for free atom density etc. : 0.40000000E+01 AA.
  Species O                   : Basic radial grid will be enhanced according to radial_multiplier =   2, to contain    73 grid points.

  Reading configuration options for species H                   .
  | Found nuclear charge :   1.0000
  | Found atomic mass :    1.0079400000000001      amu
  | Found l_max for Hartree potential  :   6
  | Found cutoff potl. onset [A], width [A], scale factor :    4.00000    2.00000    1.00000
  | Threshold for basis-dependent cutoff potential is   0.000000E+00
  | Found data for basic radial integration grid :    24 points, outermost radius =    7.000 A
  | Found multiplier for basic radial grid :   2
  | Found angular grid specification: user-specified.
  | Specified grid contains     7 separate shells.
  | Check grid settings after all constraints further below.
  | Found free-atom valence shell :  1 s   1.000
  | No ionic wave fns used. Skipping ion_occ.
  | Found basis singularity cutoff : 0.1000E-03
  | Found hydrogenic basis function :  1 s   1.157
  | Found hydrogenic basis function :  1 s   1.687
  | Found hydrogenic basis function :  1 s   2.460
  | Found hydrogenic basis function :  2 p   2.921
  | Found hydrogenic basis function :  2 p   4.145
  | Found hydrogenic basis function :  2 p   5.881
  | Found hydrogenic basis function :  3 d   6.414
  | Found hydrogenic basis function :  3 d   7.675
  | Found hydrogenic basis function :  4 f  10.809
  | Found hydrogenic basis function :  1 s   3.588
 | Encountered keyword species, ending the description of species H                   .
  Species H                   : Missing cutoff potential type.
  Defaulting to exp(1/x)/(1-x)^2 type cutoff potential.
  Species H : No 'logarithmic' tag. Using default grid for free atom:
  | Default logarithmic grid data [bohr] : 0.1000E-03 0.1000E+03 0.1012E+01
  Species H                   : Using default innermost maximum threshold i_radial=  2 for radial functions.
  Species H                   : Default cutoff onset for free atom density etc. : 0.40000000E+01 AA.
  Species H                   : Basic radial grid will be enhanced according to radial_multiplier =   2, to contain    49 grid points.

  Reading configuration options for species C                   .
  | Found nuclear charge :   6.0000
  | Found atomic mass :    12.010700000000000      amu
  | Found l_max for Hartree potential  :   6
  | Found cutoff potl. onset [A], width [A], scale factor :    4.00000    2.00000    1.00000
  | Threshold for basis-dependent cutoff potential is   0.000000E+00
  | Found data for basic radial integration grid :    34 points, outermost radius =    7.000 A
  | Found multiplier for basic radial grid :   2
  | Found angular grid specification: user-specified.
  | Specified grid contains     7 separate shells.
  | Check grid settings after all constraints further below.
  | Found free-atom valence shell :  2 s   2.000
  | Found free-atom valence shell :  2 p   2.000
  | No ionic wave fns used. Skipping ion_occ.
  | No ionic wave fns used. Skipping ion_occ.
  | Found basis singularity cutoff : 0.1000E-03
  | Found hydrogenic basis function :  1 s   1.596
  | Found hydrogenic basis function :  1 s   3.230
  | Found hydrogenic basis function :  1 s   6.538
  | Found hydrogenic basis function :  2 p   1.887
  | Found hydrogenic basis function :  2 p   4.558
  | Found hydrogenic basis function :  2 p  11.011
  | Found hydrogenic basis function :  3 d   5.231
  | Found hydrogenic basis function :  3 d   7.653
  | Found hydrogenic basis function :  3 d  11.196
  | Found hydrogenic basis function :  4 f  10.645
  | Found hydrogenic basis function :  4 f  10.800
  | Found hydrogenic basis function :  5 g  15.741
  | Found hydrogenic basis function :  1 s  13.753
  | Found hydrogenic basis function :  1 s  25.858
  | Found hydrogenic basis function :  2 p  10.266
  Species C                   : Missing cutoff potential type.
  Defaulting to exp(1/x)/(1-x)^2 type cutoff potential.
  Species C : No 'logarithmic' tag. Using default grid for free atom:
  | Default logarithmic grid data [bohr] : 0.1000E-03 0.1000E+03 0.1012E+01
  Species C                   : Using default innermost maximum threshold i_radial=  2 for radial functions.
  Species C                   : Default cutoff onset for free atom density etc. : 0.40000000E+01 AA.
  Species C                   : Basic radial grid will be enhanced according to radial_multiplier =   2, to contain    69 grid points.

  Finished reading input file 'control.in'.

------------------------------------------------------------


------------------------------------------------------------
          Reading geometry description geometry.in.
------------------------------------------------------------
  | The smallest distance between any two atoms is         0.96924844 AA.
  | The first atom of this pair is atom number                      1 .
  | The second atom of this pair is atom number                     2 .
  Input structure read successfully.
  The structure contains       36 atoms,  and a total of         20.000 electrons.

  Input geometry:
  | No unit cell requested.
  | Atomic structure:
  |       Atom                x [A]            y [A]            z [A]
  |    1: Species O            -3.07708149        0.56194697       -0.64626256
  |    2: Species H            -3.80211525        1.17736078       -0.45908770
  |    3: Species O            -4.35951346       -1.70490523        1.44321628
  |    4: Species H            -3.99241594       -1.10905252        0.74984363
  |       Ghost               x [A]            y [A]            z [A]
  |    5: Species C        -0.69657854        0.31372152       -0.73412235
  |    6: Species C        -1.85446951        1.15901172       -0.21706987
  |    7: Species C         0.65994276        0.80977821       -0.25292579
  |    8: Species C         3.17495680        0.43866925       -0.28489300
  |    9: Species H         3.32774540        1.50735897       -0.46531854
  |   10: Species H         1.79312197        0.02169807       -1.89334937
  |   11: Species H         1.65339195       -1.07440057       -0.52051894
  |   12: Species H         0.78790196        1.85866946       -0.55653985
  |   13: Species H         0.67012168        0.79133523        0.84622470
  |   14: Species H        -0.70889854        0.30929130       -1.83459809
  |   15: Species H         3.97359758       -0.10650058       -0.79308672
  |   16: Species C         1.81775155       -0.02603489       -0.79766393
  |   17: Species H        -1.77450930        2.18018269       -0.61887520
  |   18: Species H        -0.82362814       -0.72994664       -0.40855755
  |   19: Species C        -4.68451055       -7.85073899        2.53910404
  |   20: Species H        -1.82074929        1.19776036        0.88290773
  |   21: Species C        -4.94479762       -6.38952399        2.88158609
  |   22: Species C        -4.56892479       -5.43972073        1.74331534
  |   23: Species C        -4.77387262       -3.97326221        2.09371874
  |   24: Species C        -4.27348600       -3.02754564        0.99674037
  |   25: Species H        -4.93001970       -8.48487343        3.39407239
  |   26: Species H        -5.29526730       -8.17549486        1.69066951
  |   27: Species H        -3.63191662       -8.01474060        2.28704049
  |   28: Species H        -4.37096525       -6.10476594        3.77184935
  |   29: Species H        -6.00404262       -6.24210820        3.12248937
  |   30: Species H        -3.51502744       -5.59613202        1.47212945
  |   31: Species H        -5.16721092       -5.67980845        0.85264114
  |   32: Species H         3.27489699        0.25542733        0.78989635
  |   33: Species H        -4.25359425       -3.75211385        3.03733129
  |   34: Species H        -5.84616419       -3.78930407        2.25931676
  |   35: Species H        -3.22971884       -3.28889033        0.74964815
  |   36: Species H        -4.89287517       -3.17327096        0.09511773

  Slab Identifier: This is not a periodic structure.

  Finished reading input file 'geometry.in'.



  Consistency checks for stacksize environment parameter are next.

  | Maximum stacksize for task 0: unlimited
  | Maximum stacksize for task 1: unlimited
  | Maximum stacksize for task 2: unlimited
  | Maximum stacksize for task 3: unlimited
  | Maximum stacksize for task 4: unlimited
  | Maximum stacksize for task 5: unlimited
  | Maximum stacksize for task 6: unlimited
  | Maximum stacksize for task 7: unlimited
  | Maximum stacksize for task 8: unlimited
  | Maximum stacksize for task 9: unlimited
  | Maximum stacksize for task 10: unlimited
  | Maximum stacksize for task 11: unlimited
  | Maximum stacksize for task 12: unlimited
  | Maximum stacksize for task 13: unlimited
  | Maximum stacksize for task 14: unlimited
  | Maximum stacksize for task 15: unlimited
  | Maximum stacksize for task 16: unlimited
  | Maximum stacksize for task 17: unlimited
  | Maximum stacksize for task 18: unlimited
  | Maximum stacksize for task 19: unlimited
  | Maximum stacksize for task 20: unlimited
  | Maximum stacksize for task 21: unlimited
  | Maximum stacksize for task 22: unlimited
  | Maximum stacksize for task 23: unlimited
  | Maximum stacksize for task 24: unlimited
  | Maximum stacksize for task 25: unlimited
  | Maximum stacksize for task 26: unlimited
  | Maximum stacksize for task 27: unlimited
  | Maximum stacksize for task 28: unlimited
  | Maximum stacksize for task 29: unlimited
  | Maximum stacksize for task 30: unlimited
  | Maximum stacksize for task 31: unlimited
  | Maximum stacksize for task 32: unlimited
  | Maximum stacksize for task 33: unlimited
  | Maximum stacksize for task 34: unlimited
  | Maximum stacksize for task 35: unlimited
  | Maximum stacksize for task 36: unlimited
  | Maximum stacksize for task 37: unlimited
  | Maximum stacksize for task 38: unlimited
  | Maximum stacksize for task 39: unlimited
  | Maximum stacksize for task 40: unlimited
  | Maximum stacksize for task 41: unlimited
  | Maximum stacksize for task 42: unlimited
  | Maximum stacksize for task 43: unlimited
  | Maximum stacksize for task 44: unlimited
  | Maximum stacksize for task 45: unlimited
  | Maximum stacksize for task 46: unlimited
  | Maximum stacksize for task 47: unlimited
  | Maximum stacksize for task 48: unlimited
  | Maximum stacksize for task 49: unlimited
  | Maximum stacksize for task 50: unlimited
  | Maximum stacksize for task 51: unlimited
  | Maximum stacksize for task 52: unlimited
  | Maximum stacksize for task 53: unlimited
  | Maximum stacksize for task 54: unlimited
  | Maximum stacksize for task 55: unlimited
  | Maximum stacksize for task 56: unlimited
  | Maximum stacksize for task 57: unlimited
  | Maximum stacksize for task 58: unlimited
  | Maximum stacksize for task 59: unlimited
  | Maximum stacksize for task 60: unlimited
  | Maximum stacksize for task 61: unlimited
  | Maximum stacksize for task 62: unlimited
  | Maximum stacksize for task 63: unlimited
  | Maximum stacksize for task 64: unlimited
  | Maximum stacksize for task 65: unlimited
  | Maximum stacksize for task 66: unlimited
  | Maximum stacksize for task 67: unlimited
  | Maximum stacksize for task 68: unlimited
  | Maximum stacksize for task 69: unlimited
  | Maximum stacksize for task 70: unlimited
  | Maximum stacksize for task 71: unlimited
  | Maximum stacksize for task 72: unlimited
  | Maximum stacksize for task 73: unlimited
  | Maximum stacksize for task 74: unlimited
  | Maximum stacksize for task 75: unlimited
  | Maximum stacksize for task 76: unlimited
  | Maximum stacksize for task 77: unlimited
  | Maximum stacksize for task 78: unlimited
  | Maximum stacksize for task 79: unlimited
  | Maximum stacksize for task 80: unlimited
  | Maximum stacksize for task 81: unlimited
  | Maximum stacksize for task 82: unlimited
  | Maximum stacksize for task 83: unlimited
  | Maximum stacksize for task 84: unlimited
  | Maximum stacksize for task 85: unlimited
  | Maximum stacksize for task 86: unlimited
  | Maximum stacksize for task 87: unlimited
  | Maximum stacksize for task 88: unlimited
  | Maximum stacksize for task 89: unlimited
  | Maximum stacksize for task 90: unlimited
  | Maximum stacksize for task 91: unlimited
  | Maximum stacksize for task 92: unlimited
  | Maximum stacksize for task 93: unlimited
  | Maximum stacksize for task 94: unlimited
  | Maximum stacksize for task 95: unlimited
  | Maximum stacksize for task 96: unlimited
  | Maximum stacksize for task 97: unlimited
  | Maximum stacksize for task 98: unlimited
  | Maximum stacksize for task 99: unlimited
  | Maximum stacksize for task 100: unlimited
  | Maximum stacksize for task 101: unlimited
  | Maximum stacksize for task 102: unlimited
  | Maximum stacksize for task 103: unlimited
  | Maximum stacksize for task 104: unlimited
  | Maximum stacksize for task 105: unlimited
  | Maximum stacksize for task 106: unlimited
  | Maximum stacksize for task 107: unlimited
  | Maximum stacksize for task 108: unlimited
  | Maximum stacksize for task 109: unlimited
  | Maximum stacksize for task 110: unlimited
  | Maximum stacksize for task 111: unlimited
  | Maximum stacksize for task 112: unlimited
  | Maximum stacksize for task 113: unlimited
  | Maximum stacksize for task 114: unlimited
  | Maximum stacksize for task 115: unlimited
  | Maximum stacksize for task 116: unlimited
  | Maximum stacksize for task 117: unlimited
  | Maximum stacksize for task 118: unlimited
  | Maximum stacksize for task 119: unlimited
  | Maximum stacksize for task 120: unlimited
  | Maximum stacksize for task 121: unlimited
  | Maximum stacksize for task 122: unlimited
  | Maximum stacksize for task 123: unlimited
  | Maximum stacksize for task 124: unlimited
  | Maximum stacksize for task 125: unlimited
  | Maximum stacksize for task 126: unlimited
  | Maximum stacksize for task 127: unlimited
  | Maximum stacksize for task 128: unlimited
  | Maximum stacksize for task 129: unlimited
  | Maximum stacksize for task 130: unlimited
  | Maximum stacksize for task 131: unlimited
  | Maximum stacksize for task 132: unlimited
  | Maximum stacksize for task 133: unlimited
  | Maximum stacksize for task 134: unlimited
  | Maximum stacksize for task 135: unlimited
  | Maximum stacksize for task 136: unlimited
  | Maximum stacksize for task 137: unlimited
  | Maximum stacksize for task 138: unlimited
  | Maximum stacksize for task 139: unlimited
  | Maximum stacksize for task 140: unlimited
  | Maximum stacksize for task 141: unlimited
  | Maximum stacksize for task 142: unlimited
  | Maximum stacksize for task 143: unlimited
  | Maximum stacksize for task 144: unlimited
  | Maximum stacksize for task 145: unlimited
  | Maximum stacksize for task 146: unlimited
  | Maximum stacksize for task 147: unlimited
  | Maximum stacksize for task 148: unlimited
  | Maximum stacksize for task 149: unlimited
  | Maximum stacksize for task 150: unlimited
  | Maximum stacksize for task 151: unlimited
  | Maximum stacksize for task 152: unlimited
  | Maximum stacksize for task 153: unlimited
  | Maximum stacksize for task 154: unlimited
  | Maximum stacksize for task 155: unlimited
  | Maximum stacksize for task 156: unlimited
  | Maximum stacksize for task 157: unlimited
  | Maximum stacksize for task 158: unlimited
  | Maximum stacksize for task 159: unlimited
  | Maximum stacksize for task 160: unlimited
  | Maximum stacksize for task 161: unlimited
  | Maximum stacksize for task 162: unlimited
  | Maximum stacksize for task 163: unlimited
  | Maximum stacksize for task 164: unlimited
  | Maximum stacksize for task 165: unlimited
  | Maximum stacksize for task 166: unlimited
  | Maximum stacksize for task 167: unlimited
  | Maximum stacksize for task 168: unlimited
  | Maximum stacksize for task 169: unlimited
  | Maximum stacksize for task 170: unlimited
  | Maximum stacksize for task 171: unlimited
  | Maximum stacksize for task 172: unlimited
  | Maximum stacksize for task 173: unlimited
  | Maximum stacksize for task 174: unlimited
  | Maximum stacksize for task 175: unlimited
  | Maximum stacksize for task 176: unlimited
  | Maximum stacksize for task 177: unlimited
  | Maximum stacksize for task 178: unlimited
  | Maximum stacksize for task 179: unlimited
  | Maximum stacksize for task 180: unlimited
  | Maximum stacksize for task 181: unlimited
  | Maximum stacksize for task 182: unlimited
  | Maximum stacksize for task 183: unlimited
  | Maximum stacksize for task 184: unlimited
  | Maximum stacksize for task 185: unlimited
  | Maximum stacksize for task 186: unlimited
  | Maximum stacksize for task 187: unlimited
  | Maximum stacksize for task 188: unlimited
  | Maximum stacksize for task 189: unlimited
  | Maximum stacksize for task 190: unlimited
  | Maximum stacksize for task 191: unlimited
  | Maximum stacksize for task 192: unlimited
  | Maximum stacksize for task 193: unlimited
  | Maximum stacksize for task 194: unlimited
  | Maximum stacksize for task 195: unlimited
  | Maximum stacksize for task 196: unlimited
  | Maximum stacksize for task 197: unlimited
  | Maximum stacksize for task 198: unlimited
  | Maximum stacksize for task 199: unlimited
  | Maximum stacksize for task 200: unlimited
  | Maximum stacksize for task 201: unlimited
  | Maximum stacksize for task 202: unlimited
  | Maximum stacksize for task 203: unlimited
  | Maximum stacksize for task 204: unlimited
  | Maximum stacksize for task 205: unlimited
  | Maximum stacksize for task 206: unlimited
  | Maximum stacksize for task 207: unlimited
  | Maximum stacksize for task 208: unlimited
  | Maximum stacksize for task 209: unlimited
  | Maximum stacksize for task 210: unlimited
  | Maximum stacksize for task 211: unlimited
  | Maximum stacksize for task 212: unlimited
  | Maximum stacksize for task 213: unlimited
  | Maximum stacksize for task 214: unlimited
  | Maximum stacksize for task 215: unlimited
  | Maximum stacksize for task 216: unlimited
  | Maximum stacksize for task 217: unlimited
  | Maximum stacksize for task 218: unlimited
  | Maximum stacksize for task 219: unlimited
  | Maximum stacksize for task 220: unlimited
  | Maximum stacksize for task 221: unlimited
  | Maximum stacksize for task 222: unlimited
  | Maximum stacksize for task 223: unlimited
  | Maximum stacksize for task 224: unlimited
  | Maximum stacksize for task 225: unlimited
  | Maximum stacksize for task 226: unlimited
  | Maximum stacksize for task 227: unlimited
  | Maximum stacksize for task 228: unlimited
  | Maximum stacksize for task 229: unlimited
  | Maximum stacksize for task 230: unlimited
  | Maximum stacksize for task 231: unlimited
  | Maximum stacksize for task 232: unlimited
  | Maximum stacksize for task 233: unlimited
  | Maximum stacksize for task 234: unlimited
  | Maximum stacksize for task 235: unlimited
  | Maximum stacksize for task 236: unlimited
  | Maximum stacksize for task 237: unlimited
  | Maximum stacksize for task 238: unlimited
  | Maximum stacksize for task 239: unlimited
  | Maximum stacksize for task 240: unlimited
  | Maximum stacksize for task 241: unlimited
  | Maximum stacksize for task 242: unlimited
  | Maximum stacksize for task 243: unlimited
  | Maximum stacksize for task 244: unlimited
  | Maximum stacksize for task 245: unlimited
  | Maximum stacksize for task 246: unlimited
  | Maximum stacksize for task 247: unlimited
  | Maximum stacksize for task 248: unlimited
  | Maximum stacksize for task 249: unlimited
  | Maximum stacksize for task 250: unlimited
  | Maximum stacksize for task 251: unlimited
  | Maximum stacksize for task 252: unlimited
  | Maximum stacksize for task 253: unlimited
  | Maximum stacksize for task 254: unlimited
  | Maximum stacksize for task 255: unlimited
  | Current stacksize for task 0: unlimited
  | Current stacksize for task 1: unlimited
  | Current stacksize for task 2: unlimited
  | Current stacksize for task 3: unlimited
  | Current stacksize for task 4: unlimited
  | Current stacksize for task 5: unlimited
  | Current stacksize for task 6: unlimited
  | Current stacksize for task 7: unlimited
  | Current stacksize for task 8: unlimited
  | Current stacksize for task 9: unlimited
  | Current stacksize for task 10: unlimited
  | Current stacksize for task 11: unlimited
  | Current stacksize for task 12: unlimited
  | Current stacksize for task 13: unlimited
  | Current stacksize for task 14: unlimited
  | Current stacksize for task 15: unlimited
  | Current stacksize for task 16: unlimited
  | Current stacksize for task 17: unlimited
  | Current stacksize for task 18: unlimited
  | Current stacksize for task 19: unlimited
  | Current stacksize for task 20: unlimited
  | Current stacksize for task 21: unlimited
  | Current stacksize for task 22: unlimited
  | Current stacksize for task 23: unlimited
  | Current stacksize for task 24: unlimited
  | Current stacksize for task 25: unlimited
  | Current stacksize for task 26: unlimited
  | Current stacksize for task 27: unlimited
  | Current stacksize for task 28: unlimited
  | Current stacksize for task 29: unlimited
  | Current stacksize for task 30: unlimited
  | Current stacksize for task 31: unlimited
  | Current stacksize for task 32: unlimited
  | Current stacksize for task 33: unlimited
  | Current stacksize for task 34: unlimited
  | Current stacksize for task 35: unlimited
  | Current stacksize for task 36: unlimited
  | Current stacksize for task 37: unlimited
  | Current stacksize for task 38: unlimited
  | Current stacksize for task 39: unlimited
  | Current stacksize for task 40: unlimited
  | Current stacksize for task 41: unlimited
  | Current stacksize for task 42: unlimited
  | Current stacksize for task 43: unlimited
  | Current stacksize for task 44: unlimited
  | Current stacksize for task 45: unlimited
  | Current stacksize for task 46: unlimited
  | Current stacksize for task 47: unlimited
  | Current stacksize for task 48: unlimited
  | Current stacksize for task 49: unlimited
  | Current stacksize for task 50: unlimited
  | Current stacksize for task 51: unlimited
  | Current stacksize for task 52: unlimited
  | Current stacksize for task 53: unlimited
  | Current stacksize for task 54: unlimited
  | Current stacksize for task 55: unlimited
  | Current stacksize for task 56: unlimited
  | Current stacksize for task 57: unlimited
  | Current stacksize for task 58: unlimited
  | Current stacksize for task 59: unlimited
  | Current stacksize for task 60: unlimited
  | Current stacksize for task 61: unlimited
  | Current stacksize for task 62: unlimited
  | Current stacksize for task 63: unlimited
  | Current stacksize for task 64: unlimited
  | Current stacksize for task 65: unlimited
  | Current stacksize for task 66: unlimited
  | Current stacksize for task 67: unlimited
  | Current stacksize for task 68: unlimited
  | Current stacksize for task 69: unlimited
  | Current stacksize for task 70: unlimited
  | Current stacksize for task 71: unlimited
  | Current stacksize for task 72: unlimited
  | Current stacksize for task 73: unlimited
  | Current stacksize for task 74: unlimited
  | Current stacksize for task 75: unlimited
  | Current stacksize for task 76: unlimited
  | Current stacksize for task 77: unlimited
  | Current stacksize for task 78: unlimited
  | Current stacksize for task 79: unlimited
  | Current stacksize for task 80: unlimited
  | Current stacksize for task 81: unlimited
  | Current stacksize for task 82: unlimited
  | Current stacksize for task 83: unlimited
  | Current stacksize for task 84: unlimited
  | Current stacksize for task 85: unlimited
  | Current stacksize for task 86: unlimited
  | Current stacksize for task 87: unlimited
  | Current stacksize for task 88: unlimited
  | Current stacksize for task 89: unlimited
  | Current stacksize for task 90: unlimited
  | Current stacksize for task 91: unlimited
  | Current stacksize for task 92: unlimited
  | Current stacksize for task 93: unlimited
  | Current stacksize for task 94: unlimited
  | Current stacksize for task 95: unlimited
  | Current stacksize for task 96: unlimited
  | Current stacksize for task 97: unlimited
  | Current stacksize for task 98: unlimited
  | Current stacksize for task 99: unlimited
  | Current stacksize for task 100: unlimited
  | Current stacksize for task 101: unlimited
  | Current stacksize for task 102: unlimited
  | Current stacksize for task 103: unlimited
  | Current stacksize for task 104: unlimited
  | Current stacksize for task 105: unlimited
  | Current stacksize for task 106: unlimited
  | Current stacksize for task 107: unlimited
  | Current stacksize for task 108: unlimited
  | Current stacksize for task 109: unlimited
  | Current stacksize for task 110: unlimited
  | Current stacksize for task 111: unlimited
  | Current stacksize for task 112: unlimited
  | Current stacksize for task 113: unlimited
  | Current stacksize for task 114: unlimited
  | Current stacksize for task 115: unlimited
  | Current stacksize for task 116: unlimited
  | Current stacksize for task 117: unlimited
  | Current stacksize for task 118: unlimited
  | Current stacksize for task 119: unlimited
  | Current stacksize for task 120: unlimited
  | Current stacksize for task 121: unlimited
  | Current stacksize for task 122: unlimited
  | Current stacksize for task 123: unlimited
  | Current stacksize for task 124: unlimited
  | Current stacksize for task 125: unlimited
  | Current stacksize for task 126: unlimited
  | Current stacksize for task 127: unlimited
  | Current stacksize for task 128: unlimited
  | Current stacksize for task 129: unlimited
  | Current stacksize for task 130: unlimited
  | Current stacksize for task 131: unlimited
  | Current stacksize for task 132: unlimited
  | Current stacksize for task 133: unlimited
  | Current stacksize for task 134: unlimited
  | Current stacksize for task 135: unlimited
  | Current stacksize for task 136: unlimited
  | Current stacksize for task 137: unlimited
  | Current stacksize for task 138: unlimited
  | Current stacksize for task 139: unlimited
  | Current stacksize for task 140: unlimited
  | Current stacksize for task 141: unlimited
  | Current stacksize for task 142: unlimited
  | Current stacksize for task 143: unlimited
  | Current stacksize for task 144: unlimited
  | Current stacksize for task 145: unlimited
  | Current stacksize for task 146: unlimited
  | Current stacksize for task 147: unlimited
  | Current stacksize for task 148: unlimited
  | Current stacksize for task 149: unlimited
  | Current stacksize for task 150: unlimited
  | Current stacksize for task 151: unlimited
  | Current stacksize for task 152: unlimited
  | Current stacksize for task 153: unlimited
  | Current stacksize for task 154: unlimited
  | Current stacksize for task 155: unlimited
  | Current stacksize for task 156: unlimited
  | Current stacksize for task 157: unlimited
  | Current stacksize for task 158: unlimited
  | Current stacksize for task 159: unlimited
  | Current stacksize for task 160: unlimited
  | Current stacksize for task 161: unlimited
  | Current stacksize for task 162: unlimited
  | Current stacksize for task 163: unlimited
  | Current stacksize for task 164: unlimited
  | Current stacksize for task 165: unlimited
  | Current stacksize for task 166: unlimited
  | Current stacksize for task 167: unlimited
  | Current stacksize for task 168: unlimited
  | Current stacksize for task 169: unlimited
  | Current stacksize for task 170: unlimited
  | Current stacksize for task 171: unlimited
  | Current stacksize for task 172: unlimited
  | Current stacksize for task 173: unlimited
  | Current stacksize for task 174: unlimited
  | Current stacksize for task 175: unlimited
  | Current stacksize for task 176: unlimited
  | Current stacksize for task 177: unlimited
  | Current stacksize for task 178: unlimited
  | Current stacksize for task 179: unlimited
  | Current stacksize for task 180: unlimited
  | Current stacksize for task 181: unlimited
  | Current stacksize for task 182: unlimited
  | Current stacksize for task 183: unlimited
  | Current stacksize for task 184: unlimited
  | Current stacksize for task 185: unlimited
  | Current stacksize for task 186: unlimited
  | Current stacksize for task 187: unlimited
  | Current stacksize for task 188: unlimited
  | Current stacksize for task 189: unlimited
  | Current stacksize for task 190: unlimited
  | Current stacksize for task 191: unlimited
  | Current stacksize for task 192: unlimited
  | Current stacksize for task 193: unlimited
  | Current stacksize for task 194: unlimited
  | Current stacksize for task 195: unlimited
  | Current stacksize for task 196: unlimited
  | Current stacksize for task 197: unlimited
  | Current stacksize for task 198: unlimited
  | Current stacksize for task 199: unlimited
  | Current stacksize for task 200: unlimited
  | Current stacksize for task 201: unlimited
  | Current stacksize for task 202: unlimited
  | Current stacksize for task 203: unlimited
  | Current stacksize for task 204: unlimited
  | Current stacksize for task 205: unlimited
  | Current stacksize for task 206: unlimited
  | Current stacksize for task 207: unlimited
  | Current stacksize for task 208: unlimited
  | Current stacksize for task 209: unlimited
  | Current stacksize for task 210: unlimited
  | Current stacksize for task 211: unlimited
  | Current stacksize for task 212: unlimited
  | Current stacksize for task 213: unlimited
  | Current stacksize for task 214: unlimited
  | Current stacksize for task 215: unlimited
  | Current stacksize for task 216: unlimited
  | Current stacksize for task 217: unlimited
  | Current stacksize for task 218: unlimited
  | Current stacksize for task 219: unlimited
  | Current stacksize for task 220: unlimited
  | Current stacksize for task 221: unlimited
  | Current stacksize for task 222: unlimited
  | Current stacksize for task 223: unlimited
  | Current stacksize for task 224: unlimited
  | Current stacksize for task 225: unlimited
  | Current stacksize for task 226: unlimited
  | Current stacksize for task 227: unlimited
  | Current stacksize for task 228: unlimited
  | Current stacksize for task 229: unlimited
  | Current stacksize for task 230: unlimited
  | Current stacksize for task 231: unlimited
  | Current stacksize for task 232: unlimited
  | Current stacksize for task 233: unlimited
  | Current stacksize for task 234: unlimited
  | Current stacksize for task 235: unlimited
  | Current stacksize for task 236: unlimited
  | Current stacksize for task 237: unlimited
  | Current stacksize for task 238: unlimited
  | Current stacksize for task 239: unlimited
  | Current stacksize for task 240: unlimited
  | Current stacksize for task 241: unlimited
  | Current stacksize for task 242: unlimited
  | Current stacksize for task 243: unlimited
  | Current stacksize for task 244: unlimited
  | Current stacksize for task 245: unlimited
  | Current stacksize for task 246: unlimited
  | Current stacksize for task 247: unlimited
  | Current stacksize for task 248: unlimited
  | Current stacksize for task 249: unlimited
  | Current stacksize for task 250: unlimited
  | Current stacksize for task 251: unlimited
  | Current stacksize for task 252: unlimited
  | Current stacksize for task 253: unlimited
  | Current stacksize for task 254: unlimited
  | Current stacksize for task 255: unlimited

  Consistency checks for the contents of control.in are next.

  MPI_IN_PLACE appears to work with this MPI implementation.
  | Keeping use_mpi_in_place .true. (see manual).
  Species O: Using default value for prodbas_acc =   1.000000E-04.
  Species O: Using default value max_l_prodbas =    20.
  Species H: Using default value for prodbas_acc =   1.000000E-04.
  Species H: Using default value max_l_prodbas =    20.
  Species C: Using default value for prodbas_acc =   1.000000E-04.
  Species C: Using default value max_l_prodbas =    20.
  Target number of points in a grid batch is not set. Defaulting to  100
  Method for grid partitioning is not set. Defaulting to parallel hash+maxmin partitioning.
  Batch size limit is not set. Defaulting to    200
  By default, will store active basis functions for each batch.
  If in need of memory, prune_basis_once .false. can be used to disable this option.
  communication_type for Hartree potential was not specified.
  Defaulting to calc_hartree .
  Pulay mixer: Number of initial linear mixing iterations not set.
  Defaulting to    0 iterations.
  Work space size for distributed Hartree potential not set.
  Defaulting to   0.200000E+03 MB.
  Mixing parameter for charge density mixing has not been set.
  Using default: charge_mix_param =     0.0500.
  The mixing parameter will be adjusted in iteration number     2 of each s.c.f. cycle (i.e., each geometry step).
  Algorithm-dependent basis array size parameters:
  | n_max_pulay                         :       10
  Maximum number of self-consistency iterations not provided.
  Presetting  1000 iterations.
  Presetting      1001 iterations before the initial mixing cycle
  is restarted anyway using the sc_init_iter criterion / keyword.
  Presetting a factor      1.000 between actual scf density residual
  and density convergence criterion sc_accuracy_rho below which sc_init_iter
  takes no effect.
 * No s.c.f. convergence criteria (sc_accuracy_*) were provided in control.in.
 * The run will proceed with a reasonable default guess, but please check whether.
 * the s.c.f. cycles seem to take too much or too little time.
  Calculation of forces was not defined in control.in. No forces will be calculated.
  Geometry relaxation not requested: no relaxation will be performed.
 * Notice: The s.c.f. convergence criterion sc_accuracy_rho was not provided.
 * We used to stop in this case, and ask the user to provide reasonable
 * scf convergence criteria. However, this led some users to employ criteria
 * that led to extremely long run times, e.g., for simple relaxation.
 * We now preset a default value for sc_accuracy_rho if it is not set.
 * You may still wish to check if this setting is too tight or too loose for your needs.
 * Based on n_atoms and forces and force-correction status, FHI-aims chose sc_accuracy_rho =  0.195959E-04 .
  No accuracy limit for integral partition fn. given. Defaulting to  0.1000E-14.
  No threshold value for u(r) in integrations given. Defaulting to  0.1000E-05.
  No accuracy for occupation numbers given. Defaulting to  0.1000E-12.
  No threshold value for occupation numbers given. Defaulting to  0.0000E+00.
  No accuracy for fermi level given. Defaulting to  0.1000E-19.
  Maximum # of iterations to find E_F not set. Defaulting to  200.
  Will not use alltoall communication since running on < 1024 CPUs.
  partition_type (choice of integration weights) for integrals was not specified.
  | Using a version of the partition function of Stratmann and coworkers ('stratmann_sparse').
  | At each grid point, the set of atoms used to build the partition table is smoothly restricted to
  | only those atoms whose free-atom density would be non-zero at that grid point.
  Partitioning for Hartree potential was not defined. Using partition_type for integrals.
  | Adjusted default value of keyword multip_moments_threshold to:       0.10000000E-11
  | This value may affect high angular momentum components of the Hartree potential in periodic systems.
  Spin handling was not defined in control.in. Defaulting to unpolarized case.
  Threshold for auxiliary basis singularities not set.
  Default threshold for auxiliary basis singularities:  0.1000E-04
  No q(lm)/r^(l+1) cutoff set for long-range Hartree potential.
  | Using default value of  0.100000E-09 .
  | Verify using the multipole_threshold keyword.
  Defaulting to new monopole extrapolation.
  Density update method: density matrix based density update selected.
  Scalapack and density-matrix based density update required:
  Switching to packed matrix format "index" by default.
  Charge integration errors on the 3D integration grid will be compensated
  by explicit normalization and distribution of residual charges.
  Use the "compensate_multipole_errors" flag to change this behaviour.
  Default to 1D ("use_logsbt") integrations for auxiliary 2-center integrals.
  Default onset of logarithmic r-grid for SBT is -38.000000000000
  Default onset of logarithmic k-grid for SBT is -25.000000000000
  Default range of logarithmic r- and k-grid for SBT is  45.000000000000
  Default number of logarithmic r- and k-grid for SBT is   4096
  Found no potential conflicts with setting 'use_local_index' for this calculation.
  Flag 'use_local_index' has not been set.
  Testing whether we classify this calculation as large-scale ...
  The calculation contains less than 100 atoms. This is most likely not a large-scale calculation.
  Not setting 'use_local_index'.

  Consistency checks for the contents of geometry.in are next.

 * Warning: Initial charge and total charge of the system are inconsistent.
 * Selected charge in control.in:    -2.0000
 * Sum of initial charges in geometry.in:     0.0000
  Number of empty states per atom not set in control.in .
  | Since you are using a method that relies on the unoccupied spectrum
  | (MP2,GW,RPA et al.), will use the full Hamiltonian size (see below)
  | as the max. possible number of states (occupied plus empty).

  Structure-dependent array size parameters: 
  | Maximum number of distinct radial functions  :       47
  | Maximum number of basis functions            :     1464
  | Number of Kohn-Sham states (occupied + empty):     1464
------------------------------------------------------------
  After read_input_data [GB]:    180.61

  Performing system and environment tests:
  | Environment variable OMP_NUM_THREADS correctly set to 1.
  | Checking for ScaLAPACK...
  | Testing pdtran()...
  | All pdtran() tests passed.
  After prepare_system [GB]:    180.61

------------------------------------------------------------
          Preparing all fixed parts of the calculation.
------------------------------------------------------------
  Determining machine precision:
     2.2250738585072014E-308
  Setting up grids for atomic and cluster calculations.

  Creating wave function, potential, and density for free atoms.
  Runtime choices for atomic solver:
  | atomic solver xc        : PBE
  | compute density gradient: 1
  | compute kinetic density : F

  Species: O

  List of occupied orbitals and eigenvalues:
    n    l              occ      energy [Ha]    energy [eV]
    1    0           2.0000       -18.927378      -515.0401
    2    0           2.0000        -0.880539       -23.9607
    2    1           4.0000        -0.331811        -9.0290


  Species: H

  List of occupied orbitals and eigenvalues:
    n    l              occ      energy [Ha]    energy [eV]
    1    0           1.0000        -0.238386        -6.4868


  Species: C

  List of occupied orbitals and eigenvalues:
    n    l              occ      energy [Ha]    energy [eV]
    1    0           2.0000       -10.049212      -273.4530
    2    0           2.0000        -0.504761       -13.7352
    2    1           2.0000        -0.193631        -5.2690


  Adding cutoff potential to free-atom effective potential.
  Creating fixed part of basis set: Ionic, confined, hydrogenic.

  O                    hydrogenic:

  List of hydrogenic basis orbitals: 
    n    l      effective z      eigenvalue [eV]  inner max. [A]     outer max. [A]     outer radius [A]   
    1    0         1.970254       -52.8160           0.268494           0.268494           4.634338
    1    0         3.007156      -123.0361           0.175029           0.175029           3.133949
    1    0         4.589756      -286.6156           0.115504           0.115504           2.093567
    2    1         2.375477       -19.1936           0.889693           0.889693           5.366593
    2    1         4.139586       -58.2874           0.513244           0.513244           4.866590
    2    1         7.213781      -177.0054           0.292482           0.292482           3.021094
    3    2         7.171992       -77.7603           0.663465           0.663465           4.807458
    3    2        10.002497      -151.2499           0.476945           0.476945           3.629133
    3    2        13.950091      -294.1929           0.342862           0.342862           2.608875
    4    3        13.016128      -144.0669           0.647440           0.647440           4.051222
    4    3        16.028979      -218.4803           0.525948           0.525948           3.331488
    5    4        21.816083      -259.0205           0.609051           0.609051           3.291008
    1    0         9.961175     -1350.0250           0.052821           0.052821           0.981101
    1    0        15.554179     -3291.6589           0.034015           0.034015           0.639573
    2    1         7.624290      -197.7240           0.278524           0.278524           2.841960


  H                    hydrogenic:

  List of hydrogenic basis orbitals: 
    n    l      effective z      eigenvalue [eV]  inner max. [A]     outer max. [A]     outer radius [A]   
    1    0         1.156555       -18.1992           0.460320           0.460320           5.243229
    1    0         1.686845       -38.7143           0.315118           0.315118           4.932336
    1    0         2.460277       -82.3547           0.215718           0.215718           3.815562
    2    1         2.921459       -29.0309           0.723605           0.723605           5.243229
    2    1         4.145018       -58.4405           0.507614           0.507614           4.813203
    2    1         5.881026      -117.6432           0.360475           0.360475           3.678162
    3    2         6.414469       -62.2013           0.741515           0.741515           4.993004
    3    2         7.675365       -89.0587           0.617279           0.617279           4.583499
    4    3        10.808700       -99.3454           0.778676           0.778676           4.696947
    1    0         3.588333      -175.1887           0.147673           0.147673           2.644120


  C                    hydrogenic:

  List of hydrogenic basis orbitals: 
    n    l      effective z      eigenvalue [eV]  inner max. [A]     outer max. [A]     outer radius [A]   
    1    0         1.595529       -34.6362           0.332673           0.332673           5.019603
    1    0         3.229750      -141.9249           0.163712           0.163712           2.931316
    1    0         6.537823      -581.5499           0.080565           0.080565           1.478240
    2    1         1.887003       -12.1063           1.115918           1.115918           5.401630
    2    1         4.558258       -70.6738           0.462772           0.462772           4.607917
    2    1        11.010960      -412.3928           0.191912           0.191912           2.006671
    3    2         5.230724       -41.3620           0.906516           0.906516           5.207114
    3    2         7.652568       -88.5304           0.620567           0.620567           4.607917
    3    2        11.195735      -189.4887           0.424817           0.424817           3.232486
    4    3        10.645156       -96.3618           0.792453           0.792453           4.780049
    4    3        10.800406       -99.1930           0.782825           0.782825           4.721969
    5    4        15.741379      -134.8547           0.842403           0.842403           4.496620
    1    0        13.753138     -2573.5004           0.038689           0.038689           0.718621
    1    0        25.857615     -9096.9866           0.020488           0.020488           0.389976
    2    1        10.266135      -358.4880           0.206518           0.206518           2.133155

  Creating atomic-like basis functions for current effective potential.

  Species O                   :

  List of atomic basis orbitals and eigenvalues:
    n    l      energy [Ha]    energy [eV]    outer radius [A]
    1    0       -18.927378      -515.0401       1.415765
    2    0        -0.880539       -23.9607       5.048385
    2    1        -0.331811        -9.0290       5.301386


  Species H                   :

  List of atomic basis orbitals and eigenvalues:
    n    l      energy [Ha]    energy [eV]    outer radius [A]
    1    0        -0.238386        -6.4868       5.373006


  Species C                   :

  List of atomic basis orbitals and eigenvalues:
    n    l      energy [Ha]    energy [eV]    outer radius [A]
    1    0       -10.049212      -273.4530       1.934409
    2    0        -0.504761       -13.7352       5.271162
    2    1        -0.193631        -5.2690       5.401630

  Assembling full basis from fixed parts.
  | Species O :   atomic orbital   1 s accepted.
  | Species O :   atomic orbital   2 s accepted.
  | Species O :    hydro orbital   1 s accepted.
  | Species O :    hydro orbital   1 s accepted.
  | Species O :    hydro orbital   1 s accepted.
  | Species O :    hydro orbital   1 s accepted.
  | Species O :    hydro orbital   1 s accepted.
  | Species O :   atomic orbital   2 p accepted.
  | Species O :    hydro orbital   2 p accepted.
  | Species O :    hydro orbital   2 p accepted.
  | Species O :    hydro orbital   2 p accepted.
  | Species O :    hydro orbital   2 p accepted.
  | Species O :    hydro orbital   3 d accepted.
  | Species O :    hydro orbital   3 d accepted.
  | Species O :    hydro orbital   3 d accepted.
  | Species O :    hydro orbital   4 f accepted.
  | Species O :    hydro orbital   4 f accepted.
  | Species O :    hydro orbital   5 g accepted.
  | Species H :   atomic orbital   1 s accepted.
  | Species H :    hydro orbital   1 s accepted.
  | Species H :    hydro orbital   1 s accepted.
  | Species H :    hydro orbital   1 s accepted.
  | Species H :    hydro orbital   1 s accepted.
  | Species H :    hydro orbital   2 p accepted.
  | Species H :    hydro orbital   2 p accepted.
  | Species H :    hydro orbital   2 p accepted.
  | Species H :    hydro orbital   3 d accepted.
  | Species H :    hydro orbital   3 d accepted.
  | Species H :    hydro orbital   4 f accepted.
  | Species C :   atomic orbital   1 s accepted.
  | Species C :   atomic orbital   2 s accepted.
  | Species C :    hydro orbital   1 s accepted.
  | Species C :    hydro orbital   1 s accepted.
  | Species C :    hydro orbital   1 s accepted.
  | Species C :    hydro orbital   1 s accepted.
[...]
  | Number of local auxiliary basis functions on task:    235    32
  | Number of local auxiliary basis functions on task:    236    32
  | Number of local auxiliary basis functions on task:    237    32
  | Number of local auxiliary basis functions on task:    238    32
  | Number of local auxiliary basis functions on task:    239    32
  | Number of local auxiliary basis functions on task:    240    32
  | Number of local auxiliary basis functions on task:    241    32
  | Number of local auxiliary basis functions on task:    242    32
  | Number of local auxiliary basis functions on task:    243    32
  | Number of local auxiliary basis functions on task:    244    32
  | Number of local auxiliary basis functions on task:    245    32
  | Number of local auxiliary basis functions on task:    246    32
  | Number of local auxiliary basis functions on task:    247    32
  | Number of local auxiliary basis functions on task:    248    32
  | Number of local auxiliary basis functions on task:    249    32
  | Number of local auxiliary basis functions on task:    250    32
  | Number of local auxiliary basis functions on task:    251    32
  | Number of local auxiliary basis functions on task:    252    32
  | Number of local auxiliary basis functions on task:    253    32
  | Number of local auxiliary basis functions on task:    254    32
  | Number of local auxiliary basis functions on task:    255    32
  | 2D aux task distribution:     16 X     16
  | 2D block size (nb_aux_2d):     64
  Minimal free memory per node after shrink_svd_auxil [GB]:    178.70
  Minimal free memory per node after allocate_basis_pairs [GB]:    178.68

  Basis pair condensation :   1072380  -->     989456
  | Tensor "coeff3fn" needs     55 MiB per node.
  |   It stores   6.97E+08 numbers. Per node: min:  5.38E+05; avg:  2.72E+06; max:  7.17E+06
  |   It stores   1.30E+03 blocks.  Per node: min:  3.00E+00; avg:  5.08E+00; max:  8.00E+00

  The resident memory for O3fn + V2fn is      59 MiB x  256 procs =      14.650 GiB
  | Part O3fn (temporarily alloced  2x) is     55 MiB x  256 procs =      13.678 GiB
  | Part V2fn (temporarily alloced ~3x) is      4 MiB x  256 procs =       0.971 GiB
  | Original full ovlp_3fn would have been    362 MiB x  256 procs =      90.587 GiB

  Integrating the Coulomb interaction matrix for auxiliary basis functions (by atoms)

  SBT integration errors (all should be 'small'):
  large logFT aliasing -> increase N/lnrange
  large SBT aliasing -> decrease lnk0 & increase lnk0+lnrange
  large SBT ringing -> decrease lnr0 & increase lnr0+lnrange
  |            El't  L: logFT-al.   small-k   large-k   small-r   large-r
  Atomic logSBT for 2-center Coulomb matrix    :  max(cpu_time)    wall_clock(cpu1)
  | Multiplication with kernel                  :        0.085 s           0.085 s
  | Main matrix multiplication                  :        0.829 s           0.631 s
  | Analytic angular integration                :        0.484 s           0.356 s
  | Kernel construction                         :        0.077 s           0.056 s
  | Overall 2-center overlap time               :        2.338 s           1.839 s


  Get 3-center expansion coefficients

  | Storage requirements for basis-basbas products (processor-local):
  |   Species O: n_prodsfn:  2722; storage:       85.06 MiB.
  |   Species H: n_prodsfn:   680; storage:       21.25 MiB.
  |   Species C: n_prodsfn:  2690; storage:       84.06 MiB.

  Preparing TB like auxiliary 2-center Coulomb matrix
  SBT integration errors (all should be 'small'):
  large logFT aliasing -> increase N/lnrange
  large SBT aliasing -> decrease lnk0 & increase lnk0+lnrange
  large SBT ringing -> decrease lnr0 & increase lnr0+lnrange
  |            El't  L: logFT-al.   small-k   large-k   small-r   large-r
  | Need to store 49193 splines of   226 points taking      87632 KiB.
  | Spline reduction from  4096 to   226 points by (cutting and)     1 x coarsening gives error:  0.00E+00
  get_coeff3fn_ten: Temporary array needs    138 MiB buffer space on CPU 0.
  Atomic logSBT for LVL-triples                :  max(cpu_time)    wall_clock(cpu1)
  | Multiplication with kernel                  :        0.013 s           0.005 s
  | Main matrix multiplication                  :        2.597 s           0.551 s
  | Analytic angular integration                :        0.014 s           0.007 s
  | Kernel construction                         :        0.008 s           0.002 s
  | Overall 2-center overlap time               :        2.758 s           0.601 s
  | 3-center preparation multiplications        :        0.234 s           0.071 s
  | 3-center preparation SBTs                   :        7.424 s           2.516 s
  | 3-center combinations                       :        3.088 s           0.665 s
  | Overal 3-center time                        :       10.063 s           3.254 s
  | LVL initialization                          :        0.160 s           0.160 s
  | Whole LVL-triples                           :        0.160 s           0.160 s

  Atomic logSBT for 2-center Coulomb matrix    :  max(cpu_time)    wall_clock(cpu1)
  | TB initialization                           :        0.574 s           0.576 s
  | TB usage                                    :        0.004 s           0.004 s

  Redistribute 3-center expansion coefficients

  | Redistributing coeff3fn to final_coeff3fn according to 3fn-1D-blocking.

  LVL product basis initialization             :  max(cpu_time)    wall_clock(cpu1)
  | 3-center integration                        :       14.217 s          14.218 s
  | 3-center distribution                       :        6.775 s           6.777 s
  | 2-center integration                        :        2.637 s           2.636 s
  | 2-center distribution                       :        0.000 s           0.000 s

  End of correlation preparation               :  max(cpu_time)    wall_clock(cpu1)
  | Product basis setup: Total time             :       24.157 s          24.171 s
  | Product basis: | 2-center integrations      :        2.637 s           2.636 s
  | Product basis: | LVL 3-center & coefficient :       20.988 s          20.995 s

--------------------------------------------
          RPA total energy calculation starts ...

  The ovlp_3KS matrix takes another     11 MiB x    256 procs =       2.668 GiB.

  Calculating RI-LVL ovlp_3KS
  | Using bunches of    20 states for ovlp_3KS construction.
  | Need      33 MiB per proc for ovlp_3KS construction buffers.
  
  Diagonalizing the Coulomb matrix and checking for singularities with ScaLapack .

  Difference of Coulomb matrix to its transposed:  4.9960E-16
  Eigenvalues of the Coulomb matrix range from    2.3340E+01 to   -1.5328E-10.
  Using     9967   eigenvalues out of rank    10610   Coulomb matrix (auxiliary basis).
  Still using eigenvalue     1.0146E-05 while cutting     9.9812E-06 in Coulomb matrix.

  | Maximum charge error:  2.56E-02

  ovlp_3KS timings:                            :  max(cpu_time)    wall_clock(cpu1)
  | Time for V^0.5                              :       10.693 s          10.685 s
  | Time for fnfnbb -> fnKSbb                   :        0.381 s           0.381 s
  | Time for fnKSbb -> KSKSbb                   :        0.167 s           0.167 s
  | Time for KSKSbb -> KSKSon                   :        8.464 s           8.465 s
  | Time for synchronization                    :        0.015 s           0.015 s

  Initialising transformed Gauss-Legendre time and frequency grids
  Number of frequency points for self energy.....: 50
  Number of frequency points....................: 50

  Starts to calculate the exchange energy ...

  Integrating the xc potential matrix  for basis functions ...

  Starts to calculate the single excitation correction ...

  | Single excitation contribution to the correlation energy:  -0.03235942 Ha   -0.88054474 eV
  | Renormalized single excitation contribution (diag) to the correlation energy:  -0.02595903 Ha   -0.70638105  eV


  Starts to calculate the renormalized single excitation (full) correction ...

  | Renormalized single excitation contribution (full) to the correlation energy:  -0.64969062  eV


 ----------------------------------- ------------------------------------
  Start to calculate the RPA correlation energy  ... 
  HOMO and first non-fully-occupied orbitals:   10   11

 | i_freq    1            0.000284
 | i_freq    2            0.001496
 | i_freq    3            0.003688
 | i_freq    4            0.006877
 | i_freq    5            0.011088
 | i_freq    6            0.016354
 | i_freq    7            0.022718
 | i_freq    8            0.030232
 | i_freq    9            0.038959
 | i_freq   10            0.048973
 | i_freq   11            0.060364
 | i_freq   12            0.073232
 | i_freq   13            0.087699
 | i_freq   14            0.103902
 | i_freq   15            0.122005
 | i_freq   16            0.142195
 | i_freq   17            0.164691
 | i_freq   18            0.189747
 | i_freq   19            0.217662
 | i_freq   20            0.248783
 | i_freq   21            0.283522
 | i_freq   22            0.322364
 | i_freq   23            0.365883
 | i_freq   24            0.414767
 | i_freq   25            0.469840
 | i_freq   26            0.532096
 | i_freq   27            0.602748
 | i_freq   28            0.683279
 | i_freq   29            0.775522
 | i_freq   30            0.881765
 | i_freq   31            1.004891
 | i_freq   32            1.148572
 | i_freq   33            1.317542
 | i_freq   34            1.517993
 | i_freq   35            1.758143
 | i_freq   36            2.049089
 | i_freq   37            2.406102
 | i_freq   38            2.850673
 | i_freq   39            3.413807
 | i_freq   40            4.141574
 | i_freq   41            5.104818
 | i_freq   42            6.417053
 | i_freq   43            8.269467
 | i_freq   44           11.004641
 | i_freq   45           15.286969
 | i_freq   46           22.547292
 | i_freq   47           36.351938
 | i_freq   48           67.778420
 | i_freq   49          167.059463
 | i_freq   50          881.648817

 -----------------------------------------------------------------------------
    RPA correlation energy :          -1.06656356  Ha,       -29.02267110  eV

 --------------------------------------------------------------------
    Exact exchange energy             :          -17.76546863 Ha,        -483.42299769 eV
    DFT/HF exchange energy            :          -16.17635508 Ha,        -440.18101797 eV

    DFT/HF total energy               :         -164.49769671 Ha,       -4476.21007453 eV
    Exchange-only total energy        :         -163.80080427 Ha,       -4457.24666630 eV
    RPA total energy                  :         -164.86736783 Ha,       -4486.26933741 eV

    RPA+SE total energy               :         -164.89972725 Ha,       -4487.14988215 eV
    RPA+rSE (diag) total energy       :         -164.89332685 Ha,       -4486.97571845 eV
    RPA+rSE total energy              :         -164.89124352 Ha,       -4486.91902803 eV

    RPA+ total energy                 :         -164.48199684 Ha,       -4475.78285923 eV

 ----------------------------------------------------------------------------


------------------------------------------------------------------------------
  Final output of selected total energy values:

  The following output summarizes some interesting total energy values
  at the end of a run (AFTER all relaxation, molecular dynamics, etc.).

  | Total energy of the DFT / Hartree-Fock s.c.f. calculation      :          -4476.210074532 eV
  | Final zero-broadening corrected energy (caution - metals only) :          -4476.210074532 eV
  | Total energy after the post-s.c.f. correlation calculation     :          -4486.269337405 eV
  | For reference only, the value of 1 Hartree used in FHI-aims is :             27.211384500 eV

  Before relying on these values, please be sure to understand exactly which
  total energy value is referred to by a given number. Different objects may
  all carry the same name 'total energy'. Definitions:

  Total energy of the DFT / Hartree-Fock s.c.f. calculation:
  | Note that this energy does not include ANY quantities calculated after the
  | s.c.f. cycle, in particular not ANY RPA, MP2, etc. many-body perturbation terms.

  Final zero-broadening corrected energy:
  | For metallic systems only, a broadening of the occupation numbers at the Fermi
  | level can be extrapolated back to zero broadening by an electron-gas inspired
  | formula. For all systems that are not real metals, this value can be
  | meaningless and should be avoided.

  Total energy of the post-s.c.f. correlation calculation        :
  | Resolution of identity used for the 2-electron Coulomb operator:          RI_LVL_fast
  | The actual meaning of this energy depends on the setting for the 'total_energy_method'
  | keyword (MP2, RPA, rPT2, etc). If not sure, compare to the results listed above.

------------------------------------------------------------------------------
  Methods described in the following list of references were used in this FHI-aims run.
  If you publish the results, please make sure to cite these reference if they apply.
  FHI-aims is an academic code, and for our developers (often, Ph.D. students
  and postdocs), scientific credit in the community is essential.
  Thank you for helping us!

  For any use of FHI-aims, please cite:

    Volker Blum, Ralf Gehrke, Felix Hanke, Paula Havu, Ville Havu,
    Xinguo Ren, Karsten Reuter, and Matthias Scheffler
    'Ab initio molecular simulations with numeric atom-centered orbitals'
    Computer Physics Communications 180, 2175-2196 (2009)
    http://doi.org/10.1016/j.cpc.2009.06.022


  For the NAO-VCC-nZ basis sets used in this calculation, please cite:

    Igor Ying Zhang, Xinguo Ren, Patrick Rinke, Volker Blum, and Matthias Scheffler
    'Numeric atom-centered-orbital basis sets with valence-correlation consistency from H to Ar'
    New Journal of Physics 15, 123033 (2013).
    http://doi.org/10.1088/1367-2630/15/12/123033


  For Hartree-Fock, hybrid functionals, or many-body perturbation theory used in your run, please cite:

    Xinguo Ren, Patrick Rinke, Volker Blum, Juergen Wieferink, Alex Tkatchenko,
    Andrea Sanfilippo, Karsten Reuter, and Matthias Scheffler,
    'Resolution-of-identity approach to Hartree-Fock, hybrid density functionals,
    RPA, MP2, and GW with numeric atom-centered orbital basis functions'
    New Journal of Physics 14, 053020 (2012).
    http://doi.org/10.1088/1367-2630/14/5/053020


  The ELSI infrastructure was used in your run to solve the Kohn-Sham electronic structure.
  Please check out https://wordpress.elsi-interchange.org to learn more.
  If scalability is important for your project, please acknowledge ELSI by citing:

    V. W-z. Yu, F. Corsetti, A. Garcia, W. P. Huhn, M. Jacquelin, W. Jia,
    B. Lange, L. Lin, J. Lu, W. Mi, A. Seifitokaldani, A. Vazquez-Mayagoitia,
    C. Yang, H. Yang, and V. Blum
    'ELSI: A unified software interface for Kohn-Sham electronic structure solvers'
    Computer Physics Communications 222, 267-285 (2018).
    http://doi.org/10.1016/j.cpc.2017.09.007


  For the real-space grid partitioning and parallelization used in this calculation, please cite:

    Ville Havu, Volker Blum, Paula Havu, and Matthias Scheffler,
    'Efficient O(N) integration for all-electron electronic structure calculation'
    'using numerically tabulated basis functions'
    Journal of Computational Physics 228, 8367-8379 (2009).
    http://doi.org/10.1016/j.jcp.2009.08.008


  The high-level electronic structure method used in your calculation
  employed our efficient localized resolution of identity for the Coulomb operator.
  Some calculations, especially large-scale hybrid density functional theory,
  are only possible thanks to this development. For this feature, please cite:

    Arvid Ihrig, Juergen Wieferink, Igor Ying Zhang, Matti Ropo, Xinguo Ren,
    Patrick Rinke, Matthias Scheffler, and Volker Blum,
    'Accurate localized resolution of identity approach for linear-scaling
    hybrid density functionals and for many-body perturbation theory'
    New Journal of Physics 117, 093020 (2015).
    http://doi.org/10.1088/1367-2630/17/9/093020

  Of course, there are many other important community references, e.g., those cited in the
  above references. Our list is limited to references that describe implementations in the
  FHI-aims code. The reason is purely practical (length of this list) - please credit others as well.
------------------------------------------------------------
Warnings summary:

At least    2 warnings were raised during execution.

------------------------------------------------------------
          Leaving FHI-aims.
          Date     :  20250628, Time     :  163648.333

          Computational steps:
          | Number of self-consistency cycles          :            1
          | Number of SCF (re)initializations          :            1

          Detailed time accounting                     :  max(cpu_time)    wall_clock(cpu1)
          | Total time                                  :      542.032 s         542.231 s
          | Preparation time                            :        0.253 s           0.253 s
          | Boundary condition initalization            :        0.028 s           0.028 s
          | Grid partitioning                           :        0.485 s           0.486 s
          | Preloading free-atom quantities on grid     :        0.107 s           0.107 s
          | Free-atom superposition energy              :        0.003 s           0.003 s
          | Total time for integrations                 :        1.832 s           1.832 s
          | Product basis setup: Total time             :        0.000 s           0.000 s
          | Product basis: | 2-center integrations     :(       2.637 s)  (       2.636 s)
          | Product basis: | LVL 3-center & coefficient:(      20.988 s)  (      20.995 s)
          | Transforming ovlp_3fn to ovlp_3KS           :       19.731 s          19.719 s
          | Total time for evaluating polarisability    :      450.534 s         450.575 s
          | Total time for RPA corr. energy             :       18.599 s          17.573 s
          | Total time for solution of K.-S. equations  :        0.617 s           0.616 s
          | Total time for density update               :        1.963 s           1.963 s
          | Total time for mixing                       :        0.051 s           0.003 s
          | Total time for Hartree multipole update     :        0.012 s           0.012 s
          | Total time for Hartree multipole sum        :        0.133 s           0.133 s
          | Total time for total energy evaluation      :        0.000 s           0.000 s
          | Total time for scaled ZORA corrections      :        0.000 s           0.000 s
          | Total time for Mulliken analysis            :        0.000 s           0.000 s

          Partial memory accounting:
          | Residual value for overall tracked memory usage across tasks:     0.000000 MB (should be 0.000000 MB)
          | Peak values for overall tracked memory usage:
          |   Minimum:      110.216 MB (on task 221 after allocating dm_dump_sparse)
          |   Maximum:      110.435 MB (on task  88 after allocating dm_dump_sparse)
          |   Average:      110.318 MB
          | Largest tracked array allocation:
          |   Minimum:       32.392 MB (rotation_matrix_cmplx on task   0)
          |   Maximum:       32.392 MB (rotation_matrix_cmplx on task   0)
          |   Average:       32.392 MB
          Note:  These values currently only include a subset of arrays which are explicitly tracked.
          The "true" memory usage will be greater.

          Have a nice day.
------------------------------------------------------------
