------------------------------------------------------------
          Invoking FHI-aims ...

          When using FHI-aims, please cite the following reference:

            Volker Blum, Ralf Gehrke, Felix Hanke, Paula Havu,
            Ville Havu, Xinguo Ren, Karsten Reuter, and Matthias Scheffler,
            'Ab Initio Molecular Simulations with Numeric Atom-Centered Orbitals',
            Computer Physics Communications 180, 2175-2196 (2009)

          In addition, many other developments in FHI-aims are likely important for
          your particular application. If so, please cite them. A partial list of references
          is written at the end of this file. Thank you for giving credit to the authors
          of these developments.

          For general information about FHI-aims please find us at

            https://fhi-aims.org

          Online tutorials can be found at

            https://fhi-aims-club.gitlab.io/tutorials/tutorials-overview/

          For any questions about FHI-aims, please visit our slack channel at

            https://fhi-aims.slack.com

          and our main development and support site at

            https://aims-git.rz-berlin.mpg.de .

          The latter site, in particular, has a wiki to collect information, as well
          as an issue tracker to log discussions, suggest improvements, and report issues
          or bugs. https://aims-git.rz-berlin.mpg.de is also the main development site
          of the project and all new and updated code versions can be obtained there.
          Please send an email to aims-coordinators@fhi-berlin.mpg.de and we will add
          you to these sites. They are for you and everyone is welcome there.

------------------------------------------------------------



  Date     :  20251111, Time     :  180553.787
  Time zero on CPU 1             :   0.417541670000000E+02  s.
  Internal wall clock time zero  :           532116353.787  s.

  FHI-aims created a unique identifier for this run for later identification
  aims_uuid : 08505E77-0633-4BD8-A4C8-7370902ECC17

  Build configuration of the current instance of FHI-aims
  -------------------------------------------------------
  FHI-aims version      : 251023
  Commit number         : 8c0f38015
  CMake host system     : Linux-3.10.0-1160.80.1.el7.x86_64
  CMake version         : 3.24.2
  OS Distribution       : CentOS Linux 7 (Core)
  Built on              : AMD EPYC 7502 32-Core Processor
  Fortran compiler      : /apps/compilers/intel/2018.2/compilers_and_libraries_2018/linux/mpi/intel64/bin/mpif90 (Intel) version 18.0.2.20180210
  Fortran compiler flags: -O3 -ip -fp-model precise
  C compiler            : /apps/compilers/intel/2018.2/compilers_and_libraries_2018/linux/mpi/intel64/bin/mpiicc (Intel) version 18.0.2.20180210
  C compiler flags      : -O3 -ip -fp-model precise -std=gnu99
  C++ compiler          : /apps/compilers/intel/2018.2/compilers_and_libraries_2018/linux/mpi/intel64/bin/mpiicpc (Intel) version 18.0.2.20180210
  C++ compiler flags    : -O3 -ip -fp-model precise
  HIP compiler          :
  HIP compiler flags    :
  HIP GPU arch          :
  ELPA2 kernel          : AVX2
  Using MPI
  Using ScaLAPACK
  Using LibXC
  Using i-PI
  Using RLSY
  Linking against: /apps/compilers/intel/2020.1/compilers_and_libraries_2020/linux/mkl/lib/intel64/libmkl_intel_lp64.so
                   /apps/compilers/intel/2020.1/compilers_and_libraries_2020/linux/mkl/lib/intel64/libmkl_intel_thread.so
                   /apps/compilers/intel/2020.1/compilers_and_libraries_2020/linux/mkl/lib/intel64/libmkl_core.so
                   /apps/compilers/intel/2020.1/compilers_and_libraries_2020/linux/mkl/lib/intel64/libmkl_blacs_intelmpi_lp64.so
                   /apps/compilers/intel/2020.1/compilers_and_libraries_2020/linux/mkl/lib/intel64/libmkl_scalapack_lp64.so
                   /usr/lib64/libpthread.so

  Using       64 parallel tasks.
  Task        0 on host cca9062 reporting.
  Task        1 on host cca9062 reporting.
  Task        2 on host cca9062 reporting.
  Task        3 on host cca9062 reporting.
  Task        4 on host cca9062 reporting.
  Task        5 on host cca9062 reporting.
  Task        6 on host cca9062 reporting.
  Task        7 on host cca9062 reporting.
  Task        8 on host cca9062 reporting.
  Task        9 on host cca9062 reporting.
  Task       10 on host cca9062 reporting.
  Task       11 on host cca9062 reporting.
  Task       12 on host cca9062 reporting.
  Task       13 on host cca9062 reporting.
  Task       14 on host cca9062 reporting.
  Task       15 on host cca9062 reporting.
  Task       16 on host cca9062 reporting.
  Task       17 on host cca9062 reporting.
  Task       18 on host cca9062 reporting.
  Task       19 on host cca9062 reporting.
  Task       20 on host cca9062 reporting.
  Task       21 on host cca9062 reporting.
  Task       22 on host cca9062 reporting.
  Task       23 on host cca9062 reporting.
  Task       24 on host cca9062 reporting.
  Task       25 on host cca9062 reporting.
  Task       26 on host cca9062 reporting.
  Task       27 on host cca9062 reporting.
  Task       28 on host cca9062 reporting.
  Task       29 on host cca9062 reporting.
  Task       30 on host cca9062 reporting.
  Task       31 on host cca9062 reporting.
  Task       32 on host cca9062 reporting.
  Task       33 on host cca9062 reporting.
  Task       34 on host cca9062 reporting.
  Task       35 on host cca9062 reporting.
  Task       36 on host cca9062 reporting.
  Task       37 on host cca9062 reporting.
  Task       38 on host cca9062 reporting.
  Task       39 on host cca9062 reporting.
  Task       40 on host cca9062 reporting.
  Task       41 on host cca9062 reporting.
  Task       42 on host cca9062 reporting.
  Task       43 on host cca9062 reporting.
  Task       44 on host cca9062 reporting.
  Task       45 on host cca9062 reporting.
  Task       46 on host cca9062 reporting.
  Task       47 on host cca9062 reporting.
  Task       48 on host cca9062 reporting.
  Task       49 on host cca9062 reporting.
  Task       50 on host cca9062 reporting.
  Task       51 on host cca9062 reporting.
  Task       52 on host cca9062 reporting.
  Task       53 on host cca9062 reporting.
  Task       54 on host cca9062 reporting.
  Task       55 on host cca9062 reporting.
  Task       56 on host cca9062 reporting.
  Task       57 on host cca9062 reporting.
  Task       58 on host cca9062 reporting.
  Task       59 on host cca9062 reporting.
  Task       60 on host cca9062 reporting.
  Task       61 on host cca9062 reporting.
  Task       62 on host cca9062 reporting.
  Task       63 on host cca9062 reporting.

  Obtaining array dimensions for all initial allocations:
  
  -----------------------------------------------------------------------
  Parsing control.in (first pass over file, find array dimensions only).
  The contents of control.in will be repeated verbatim below
  unless switched off by setting 'verbatim_writeout .false.' .
  in the first line of control.in .
  -----------------------------------------------------------------------
  
  #===============================================================================
  # Created using the Atomic Simulation Environment (ASE)
  
  # Tue Nov 11 18:05:53 2025
  
  #===============================================================================
  xc                                 PBE
  relativistic                       atomic_zora scalar
  occupation_type                    gaussian 0.01
  mixer                              pulay
  KS_method                          parallel
  RI_method                          LVL
  n_max_pulay                        10
  density_update_method              density_matrix
  lmo_pm_charge_metric               mulliken
  atomic_solver_xc                   PBE
  basis_threshold                    1e-05
  override_illconditioning           .true.
  override_initial_charge_check      .true.
  frequency_points                   50
  use_2d_corr                        .true.
  total_energy_method                rpa
  qm_embedding_mo_localise           .false.
  qm_embedding_calc                  3
  charge                             -2.000000000000199
  #===============================================================================
  
  ################################################################################
  #
  #  FHI-aims code project
  #  Volker Blum, Fritz Haber Institute Berlin, 2009
  #
  #  Suggested "tight" defaults for C atom (to be pasted into control.in file)
  #
  ################################################################################
    species        C
  #     global species definitions
      nucleus             6
      mass                12.0107
  #
      l_hartree           6
  #
      cut_pot             4.0  2.0  1.0
      basis_dep_cutoff    1e-4
  #
      radial_base         34 7.0
      radial_multiplier   2
      angular_grids specified
        division   0.2187   50
        division   0.4416  110
        division   0.6335  194
        division   0.7727  302
        division   0.8772  434
  #      division   0.9334  590
  #      division   0.9924  770
  #      division   1.0230  974
  #      division   1.5020 1202
  #     outer_grid  974
        outer_grid  434
  ################################################################################
  #
  #  Definition of "minimal" basis
  #
  ################################################################################
  #     valence basis states
      valence      2  s   2.
      valence      2  p   2.
  #     ion occupancy
      ion_occ      2  s   1.
      ion_occ      2  p   1.
  ################################################################################
  #
  #  Suggested additional basis functions. For production calculations,
  #  uncomment them one after another (the most important basis functions are
  #  listed first).
  #
  #  Constructed for dimers: 1.0 A, 1.25 A, 1.5 A, 2.0 A, 3.0 A
  #
  ################################################################################
  #  "First tier" - improvements: -1214.57 meV to -155.61 meV
       hydro 2 p 1.7
       hydro 3 d 6
       hydro 2 s 4.9
  #  "Second tier" - improvements: -67.75 meV to -5.23 meV
       hydro 4 f 9.8
       hydro 3 p 5.2
       hydro 3 s 4.3
       hydro 5 g 14.4
       hydro 3 d 6.2
  #  "Third tier" - improvements: -2.43 meV to -0.60 meV
  #     hydro 2 p 5.6
  #     hydro 2 s 1.4
  #     hydro 3 d 4.9
  #     hydro 4 f 11.2
  #  "Fourth tier" - improvements: -0.39 meV to -0.18 meV
  #     hydro 2 p 2.1
  #     hydro 5 g 16.4
  #     hydro 4 d 13.2
  #     hydro 3 s 13.6
  #     hydro 4 f 17.6
  #  Further basis functions - improvements: -0.08 meV and below
  #     hydro 3 s 2
  #     hydro 3 p 6
  #     hydro 4 d 20
  ################################################################################
  #
  # For methods that use the localized form of the "resolution of identity" for
  # the two-electron Coulomb operator (RI_method LVL), particularly Hartree-Fock and
  # hybrid density functional calculations, the highest accuracy can be obtained by
  # uncommenting the line beginning with "for_aux"  below, thus adding an extra g radial
  # function to the construction of the product basis set for the expansion.
  # See Ref. New J. Phys. 17, 093020 (2015) for more information, particularly Figs. 1 and 6.
  #
  ################################################################################
  #
  # for_aux hydro 5 g 6.0
  ################################################################################
  #
  #  FHI-aims code project
  #  Volker Blum, Fritz Haber Institute Berlin, 2009
  #
  #  Suggested "tight" defaults for O atom (to be pasted into control.in file)
  #
  ################################################################################
    species        O
  #     global species definitions
      nucleus             8
      mass                15.9994
  #
      l_hartree           6
  #
      cut_pot             4.0  2.0  1.0
      basis_dep_cutoff    1e-4
  #
      radial_base         36 7.0
      radial_multiplier   2
       angular_grids specified
        division   0.1817   50
        division   0.3417  110
        division   0.4949  194
        division   0.6251  302
        division   0.8014  434
  #      division   0.8507  590
  #      division   0.8762  770
  #      division   0.9023  974
  #      division   1.2339 1202
  #      outer_grid 974
        outer_grid  434
  ################################################################################
  #
  #  Definition of "minimal" basis
  #
  ################################################################################
  #     valence basis states
      valence      2  s   2.
      valence      2  p   4.
  #     ion occupancy
      ion_occ      2  s   1.
      ion_occ      2  p   3.
  ################################################################################
  #
  #  Suggested additional basis functions. For production calculations,
  #  uncomment them one after another (the most important basis functions are
  #  listed first).
  #
  #  Constructed for dimers: 1.0 A, 1.208 A, 1.5 A, 2.0 A, 3.0 A
  #
  ################################################################################
  #  "First tier" - improvements: -699.05 meV to -159.38 meV
       hydro 2 p 1.8
       hydro 3 d 7.6
       hydro 3 s 6.4
  #  "Second tier" - improvements: -49.91 meV to -5.39 meV
       hydro 4 f 11.6
       hydro 3 p 6.2
       hydro 3 d 5.6
       hydro 5 g 17.6
       hydro 1 s 0.75
  #  "Third tier" - improvements: -2.83 meV to -0.50 meV
  #     ionic 2 p auto
  #     hydro 4 f 10.8
  #     hydro 4 d 4.7
  #     hydro 2 s 6.8
  #  "Fourth tier" - improvements: -0.40 meV to -0.12 meV
  #     hydro 3 p 5
  #     hydro 3 s 3.3
  #     hydro 5 g 15.6
  #     hydro 4 f 17.6
  #     hydro 4 d 14
  # Further basis functions - -0.08 meV and below
  #     hydro 3 s 2.1
  #     hydro 4 d 11.6
  #     hydro 3 p 16
  #     hydro 2 s 17.2
  ################################################################################
  #
  # For methods that use the localized form of the "resolution of identity" for
  # the two-electron Coulomb operator (RI_method LVL), particularly Hartree-Fock and
  # hybrid density functional calculations, the highest accuracy can be obtained by
  # uncommenting the line beginning with "for_aux"  below, thus adding an extra g radial
  # function to the construction of the product basis set for the expansion.
  # See Ref. New J. Phys. 17, 093020 (2015) for more information, particularly Figs. 1 and 6.
  #
  ################################################################################
  #
  # for_aux hydro 5 g 6.0
  ################################################################################
  #
  #  FHI-aims code project
  #  Volker Blum, Fritz Haber Institute Berlin, 2009
  #
  #  Suggested "tight" defaults for H atom (to be pasted into control.in file)
  #
  ################################################################################
    species        H
  #     global species definitions
      nucleus             1
      mass                1.00794
  #
      l_hartree           6
  #
      cut_pot             4.0  2.0  1.0
      basis_dep_cutoff    1e-4
  #
      radial_base         24 7.0
      radial_multiplier   2
      angular_grids       specified
        division   0.1930   50
        division   0.3175  110
        division   0.4293  194
        division   0.5066  302
        division   0.5626  434
  #      division   0.5922  590
  #      division   0.6227  974
  #      division   0.6868 1202
  #      outer_grid  770
        outer_grid  434
  ################################################################################
  #
  #  Definition of "minimal" basis
  #
  ################################################################################
  #     valence basis states
      valence      1  s   1.
  #     ion occupancy
      ion_occ      1  s   0.5
  ################################################################################
  #
  #  Suggested additional basis functions. For production calculations,
  #  uncomment them one after another (the most important basis functions are
  #  listed first).
  #
  #  Basis constructed for dimers: 0.5 A, 0.7 A, 1.0 A, 1.5 A, 2.5 A
  #
  ################################################################################
  #  "First tier" - improvements: -1014.90 meV to -62.69 meV
       hydro 2 s 2.1
       hydro 2 p 3.5
  #  "Second tier" - improvements: -12.89 meV to -1.83 meV
       hydro 1 s 0.85
       hydro 2 p 3.7
       hydro 2 s 1.2
       hydro 3 d 7
  #  "Third tier" - improvements: -0.25 meV to -0.12 meV
  #     hydro 4 f 11.2
  #     hydro 3 p 4.8
  #     hydro 4 d 9
  #     hydro 3 s 3.2
  ################################################################################
  #
  # For methods that use the localized form of the "resolution of identity" for
  # the two-electron Coulomb operator (RI_method LVL), particularly Hartree-Fock and
  # hybrid density functional calculations, the highest accuracy can be obtained by
  # uncommenting the line beginning with "for_aux"  below, thus adding an extra g radial
  # function to the construction of the product basis set for the expansion.
  # See Ref. New J. Phys. 17, 093020 (2015) for more information, particularly Figs. 1 and 6.
  #
  ################################################################################
  #
  # for_aux hydro 5 g 6.0
  
  -----------------------------------------------------------------------
  Completed first pass over input file control.in .
  -----------------------------------------------------------------------
  
  
  -----------------------------------------------------------------------
  Parsing geometry.in (first pass over file, find array dimensions only).
  The contents of geometry.in will be repeated verbatim below
  unless switched off by setting 'verbatim_writeout .false.' .
  in the first line of geometry.in .
  -----------------------------------------------------------------------
  
  #===============================================================================
  # Created using the Atomic Simulation Environment (ASE)
  
  # Tue Nov 11 18:05:53 2025
  
  #=======================================================
  atom 0.6044402700000000 -0.6930199200000000 -0.5066024000000000 C
  qm_embedding_region 1
  atom 0.4950197700000000 0.5441475700000000 -0.4507170500000000 O
  qm_embedding_region 1
  atom -0.3714834200000000 -1.5048233300000000 -0.8792376400000000 O
  qm_embedding_region 1
  atom -1.2133858099999999 -0.9619812100000000 -1.1186774300000000 H
  qm_embedding_region 1
  atom -2.5340395899999999 -0.2056230600000000 -1.5159376600000001 O
  qm_embedding_region 1
  atom -2.6250696200000001 1.0334764599999999 -1.4898492200000000 C
  qm_embedding_region 1
  atom -0.8204470000000000 1.2966647499999999 -0.8338068600000000 H
  qm_embedding_region 1
  atom -1.6537280000000001 1.8440345000000000 -1.1007689000000001 O
  qm_embedding_region 1
  empty 2.0983641199999998 -2.6312280299999999 -1.8749741799999999 H
  qm_embedding_region 2
  empty 1.3514187799999999 -3.4404461300000002 -0.4985927000000000 H
  qm_embedding_region 2
  empty 3.5259095399999998 -3.3098039799999999 -0.4000337400000000 C
  qm_embedding_region 2
  empty 4.3008890900000001 -2.5793310100000002 -0.6901861500000001 H
  qm_embedding_region 2
  empty 3.5988494800000002 -3.4081204700000001 0.6986452000000000 H
  qm_embedding_region 2
  empty 3.8469794099999999 -4.6613369799999997 -1.0546736400000001 C
  qm_embedding_region 2
  empty 1.8918462300000001 -1.3840842900000001 -0.1179706500000000 C
  qm_embedding_region 2
  empty 2.7070067700000000 -0.6726914500000000 -0.3167187400000000 H
  qm_embedding_region 2
  empty 3.0967155599999998 -5.8581125800000002 -0.4534888300000000 C
  qm_embedding_region 2
  empty 3.3564856900000000 -7.1803568000000002 -1.1948902699999999 C
  qm_embedding_region 2
  empty 1.8572236400000000 -1.4977928599999999 0.9801585200000000 H
  qm_embedding_region 2
  empty 2.1532342600000001 -2.7413833400000001 -0.7786256600000000 C
  qm_embedding_region 2
  empty 4.9294348799999996 -4.8557837199999998 -0.9578668900000000 H
  qm_embedding_region 2
  empty 3.6461295599999999 -4.5913173499999997 -2.1385304000000001 H
  qm_embedding_region 2
  empty -3.8849502800000000 1.7508704500000001 -1.8947907200000000 C
  qm_embedding_region 2
  empty -4.5769489800000001 1.0515556100000001 -2.3725430900000002 H
  qm_embedding_region 2
  empty -4.3569127999999999 2.1796205500000001 -0.9996131500000000 H
  qm_embedding_region 2
  empty -3.6453615799999999 2.5835503900000001 -2.5678542700000002 H
  qm_embedding_region 2
  
  -----------------------------------------------------------------------
  Completed first pass over input file geometry.in .
  -----------------------------------------------------------------------
  

  Basic array size parameters:
  | Number of species                 :        3
  | Number of atoms                   :       26
  | Max. basis fn. angular momentum   :        4
  | Max. atomic/ionic basis occupied n:        2
  | Max. number of basis fn. types    :        2
  | Max. radial fns per species/type  :        8
  | Max. logarithmic grid size        :     1301
  | Max. radial integration grid size :       73
  | Max. angular integration grid size:      434
  | Max. angular grid division number :        8
  | Radial grid for Hartree potential :     1301
  | Number of spin channels           :        1

  Definition of standardized fundamental physical constants in this FHI-aims run:
  | Using the set of values used in FHI-aims up to 2024, which combines values from
  | different CODATA sets - see constants.f90.
  | Use the 'codata' keyword in control.in to change this selection.

  Memory overcommitment is allowed on your operating system.

------------------------------------------------------------
          Reading file control.in.
------------------------------------------------------------
  XC: Using PBE gradient-corrected functionals.
  Scalar relativistic treatment of kinetic energy: on-site free-atom approximation to ZORA.
  Occupation type: Gaussian broadening, width =   0.100000E-01 eV.
  Using pulay charge density mixing.
  Kohn-Sham electronic structure solved by the ELSI library.
  The 'LVL' version of RI (resolution of identity) technique is used.
  ** This is a localized expansion of all basis function products.
     Its intended use are Hartree-Fock and hybrid functionals.
     For RPA, MP2, GW, etc., LVL is not yet as accurate. In those cases, check carefully.
  Pulay mixing - number of memorized iterations:   10
  MO localisation with PM objective function calculated with Mulliken charges
  Atomic Solver XC: Using user-defined functional for generating the minimal NAO basis functions.
  Note that only the following functionals are available: kli, pz-lda, pw-lda, vwn, vwn-gauss, pw91_gga, pbe, rpbe, revpbe, pbeint, pbesol, blyp.
  Threshold for basis singularities:  0.1000E-04
  override_illconditioning: Explicitly overriding any built-in checks for an ill-conditioned overlap matrix.
** WARNING:
  ***  If you use this flag, you should really know what you are doing.
** END OF WARNING
** WARNING:
  *** DO NOT keep this flag set by default in all your control.in files.
** END OF WARNING
  Number of frequency points used for the self-energy calculation:     50
  Efficient 2D distribution for correlation code.
  RPA correlation energy calculation will be started after the DFT/HF calculation.
  Charged system requested: Charge =  -0.200000E+01.
 
  Reading configuration options for species C                   .
  | Found nuclear charge :   6.0000
  | Found atomic mass :    12.0107000000000      amu
  | Found l_max for Hartree potential  :   6
  | Found cutoff potl. onset [A], width [A], scale factor :    4.00000    2.00000    1.00000
  | Threshold for basis-dependent cutoff potential is   0.100000E-03
  | Found data for basic radial integration grid :    34 points, outermost radius =    7.000 A
  | Found multiplier for basic radial grid :   2
  | Found angular grid specification: user-specified.
  | Specified grid contains     6 separate shells.
  | Check grid settings after all constraints further below.
  | Found free-atom valence shell :  2 s   2.000
  | Found free-atom valence shell :  2 p   2.000
  | No ionic wave fns used. Skipping ion_occ.
  | No ionic wave fns used. Skipping ion_occ.
  | Found hydrogenic basis function :  2 p   1.700
  | Found hydrogenic basis function :  3 d   6.000
  | Found hydrogenic basis function :  2 s   4.900
  | Found hydrogenic basis function :  4 f   9.800
  | Found hydrogenic basis function :  3 p   5.200
  | Found hydrogenic basis function :  3 s   4.300
  | Found hydrogenic basis function :  5 g  14.400
  | Found hydrogenic basis function :  3 d   6.200
 | Encountered keyword species, ending the description of species C                   .
  Species C                   : Missing cutoff potential type.
  Defaulting to exp(1/x)/(1-x)^2 type cutoff potential.
  Species C : No 'logarithmic' tag. Using default grid for free atom:
  | Default logarithmic grid data [bohr] : 0.1000E-03 0.1000E+03 0.1012E+01
  Species C : On-site basis accuracy parameter (for Gram-Schmidt orthonormalisation) not specified.
  Using default value basis_acc =  0.1000000E-03.
  Species C                   : Using default innermost maximum threshold i_radial=  2 for radial functions.
  Species C                   : Default cutoff onset for free atom density etc. : 0.40000000E+01 AA.
  Species C                   : Basic radial grid will be enhanced according to radial_multiplier =   2, to contain    69 grid points.
 
  Reading configuration options for species O                   .
  | Found nuclear charge :   8.0000
  | Found atomic mass :    15.9994000000000      amu
  | Found l_max for Hartree potential  :   6
  | Found cutoff potl. onset [A], width [A], scale factor :    4.00000    2.00000    1.00000
  | Threshold for basis-dependent cutoff potential is   0.100000E-03
  | Found data for basic radial integration grid :    36 points, outermost radius =    7.000 A
  | Found multiplier for basic radial grid :   2
  | Found angular grid specification: user-specified.
  | Specified grid contains     6 separate shells.
  | Check grid settings after all constraints further below.
  | Found free-atom valence shell :  2 s   2.000
  | Found free-atom valence shell :  2 p   4.000
  | No ionic wave fns used. Skipping ion_occ.
  | No ionic wave fns used. Skipping ion_occ.
  | Found hydrogenic basis function :  2 p   1.800
  | Found hydrogenic basis function :  3 d   7.600
  | Found hydrogenic basis function :  3 s   6.400
  | Found hydrogenic basis function :  4 f  11.600
  | Found hydrogenic basis function :  3 p   6.200
  | Found hydrogenic basis function :  3 d   5.600
  | Found hydrogenic basis function :  5 g  17.600
  | Found hydrogenic basis function :  1 s   0.750
 | Encountered keyword species, ending the description of species O                   .
  Species O                   : Missing cutoff potential type.
  Defaulting to exp(1/x)/(1-x)^2 type cutoff potential.
  Species O : No 'logarithmic' tag. Using default grid for free atom:
  | Default logarithmic grid data [bohr] : 0.1000E-03 0.1000E+03 0.1012E+01
  Species O : On-site basis accuracy parameter (for Gram-Schmidt orthonormalisation) not specified.
  Using default value basis_acc =  0.1000000E-03.
  Species O                   : Using default innermost maximum threshold i_radial=  2 for radial functions.
  Species O                   : Default cutoff onset for free atom density etc. : 0.40000000E+01 AA.
  Species O                   : Basic radial grid will be enhanced according to radial_multiplier =   2, to contain    73 grid points.
 
  Reading configuration options for species H                   .
  | Found nuclear charge :   1.0000
  | Found atomic mass :    1.00794000000000      amu
  | Found l_max for Hartree potential  :   6
  | Found cutoff potl. onset [A], width [A], scale factor :    4.00000    2.00000    1.00000
  | Threshold for basis-dependent cutoff potential is   0.100000E-03
  | Found data for basic radial integration grid :    24 points, outermost radius =    7.000 A
  | Found multiplier for basic radial grid :   2
  | Found angular grid specification: user-specified.
  | Specified grid contains     6 separate shells.
  | Check grid settings after all constraints further below.
  | Found free-atom valence shell :  1 s   1.000
  | No ionic wave fns used. Skipping ion_occ.
  | Found hydrogenic basis function :  2 s   2.100
  | Found hydrogenic basis function :  2 p   3.500
  | Found hydrogenic basis function :  1 s   0.850
  | Found hydrogenic basis function :  2 p   3.700
  | Found hydrogenic basis function :  2 s   1.200
  | Found hydrogenic basis function :  3 d   7.000
  Species H                   : Missing cutoff potential type.
  Defaulting to exp(1/x)/(1-x)^2 type cutoff potential.
  Species H : No 'logarithmic' tag. Using default grid for free atom:
  | Default logarithmic grid data [bohr] : 0.1000E-03 0.1000E+03 0.1012E+01
  Species H : On-site basis accuracy parameter (for Gram-Schmidt orthonormalisation) not specified.
  Using default value basis_acc =  0.1000000E-03.
  Species H                   : Using default innermost maximum threshold i_radial=  2 for radial functions.
  Species H                   : Default cutoff onset for free atom density etc. : 0.40000000E+01 AA.
  Species H                   : Basic radial grid will be enhanced according to radial_multiplier =   2, to contain    49 grid points.
 
  Finished reading input file 'control.in'.
 
------------------------------------------------------------


------------------------------------------------------------
          Reading geometry description geometry.in.
------------------------------------------------------------
  | The smallest distance between any two atoms is         1.02995564 AA.
  | The first atom of this pair is atom number                      3 .
  | The second atom of this pair is atom number                     4 .
  Input structure read successfully.
  The structure contains       26 atoms,  and a total of         48.000 electrons.

  Input geometry:
  | No unit cell requested.
  | Atomic structure:
  |       Atom                x [A]            y [A]            z [A]
  |    1: Species C             0.60444027       -0.69301992       -0.50660240
  |    2: Species O             0.49501977        0.54414757       -0.45071705
  |    3: Species O            -0.37148342       -1.50482333       -0.87923764
  |    4: Species H            -1.21338581       -0.96198121       -1.11867743
  |    5: Species O            -2.53403959       -0.20562306       -1.51593766
  |    6: Species C            -2.62506962        1.03347646       -1.48984922
  |    7: Species H            -0.82044700        1.29666475       -0.83380686
  |    8: Species O            -1.65372800        1.84403450       -1.10076890
  |       Ghost               x [A]            y [A]            z [A]
  |    9: Species H         2.09836412       -2.63122803       -1.87497418
  |   10: Species H         1.35141878       -3.44044613       -0.49859270
  |   11: Species C         3.52590954       -3.30980398       -0.40003374
  |   12: Species H         4.30088909       -2.57933101       -0.69018615
  |   13: Species H         3.59884948       -3.40812047        0.69864520
  |   14: Species C         3.84697941       -4.66133698       -1.05467364
  |   15: Species C         1.89184623       -1.38408429       -0.11797065
  |   16: Species H         2.70700677       -0.67269145       -0.31671874
  |   17: Species C         3.09671556       -5.85811258       -0.45348883
  |   18: Species C         3.35648569       -7.18035680       -1.19489027
  |   19: Species H         1.85722364       -1.49779286        0.98015852
  |   20: Species C         2.15323426       -2.74138334       -0.77862566
  |   21: Species H         4.92943488       -4.85578372       -0.95786689
  |   22: Species H         3.64612956       -4.59131735       -2.13853040
  |   23: Species C        -3.88495028        1.75087045       -1.89479072
  |   24: Species H        -4.57694898        1.05155561       -2.37254309
  |   25: Species H        -4.35691280        2.17962055       -0.99961315
  |   26: Species H        -3.64536158        2.58355039       -2.56785427

  Slab Identifier: This is not a periodic structure.
 
  Finished reading input file 'geometry.in'.
 

 
  Consistency checks for stacksize environment parameter are next.
 
  | Maximum stacksize for task 0: unlimited
  | Maximum stacksize for task 1: unlimited
  | Maximum stacksize for task 2: unlimited
  | Maximum stacksize for task 3: unlimited
  | Maximum stacksize for task 4: unlimited
  | Maximum stacksize for task 5: unlimited
  | Maximum stacksize for task 6: unlimited
  | Maximum stacksize for task 7: unlimited
  | Maximum stacksize for task 8: unlimited
  | Maximum stacksize for task 9: unlimited
  | Maximum stacksize for task 10: unlimited
  | Maximum stacksize for task 11: unlimited
  | Maximum stacksize for task 12: unlimited
  | Maximum stacksize for task 13: unlimited
  | Maximum stacksize for task 14: unlimited
  | Maximum stacksize for task 15: unlimited
  | Maximum stacksize for task 16: unlimited
  | Maximum stacksize for task 17: unlimited
  | Maximum stacksize for task 18: unlimited
  | Maximum stacksize for task 19: unlimited
  | Maximum stacksize for task 20: unlimited
  | Maximum stacksize for task 21: unlimited
  | Maximum stacksize for task 22: unlimited
  | Maximum stacksize for task 23: unlimited
  | Maximum stacksize for task 24: unlimited
  | Maximum stacksize for task 25: unlimited
  | Maximum stacksize for task 26: unlimited
  | Maximum stacksize for task 27: unlimited
  | Maximum stacksize for task 28: unlimited
  | Maximum stacksize for task 29: unlimited
  | Maximum stacksize for task 30: unlimited
  | Maximum stacksize for task 31: unlimited
  | Maximum stacksize for task 32: unlimited
  | Maximum stacksize for task 33: unlimited
  | Maximum stacksize for task 34: unlimited
  | Maximum stacksize for task 35: unlimited
  | Maximum stacksize for task 36: unlimited
  | Maximum stacksize for task 37: unlimited
  | Maximum stacksize for task 38: unlimited
  | Maximum stacksize for task 39: unlimited
  | Maximum stacksize for task 40: unlimited
  | Maximum stacksize for task 41: unlimited
  | Maximum stacksize for task 42: unlimited
  | Maximum stacksize for task 43: unlimited
  | Maximum stacksize for task 44: unlimited
  | Maximum stacksize for task 45: unlimited
  | Maximum stacksize for task 46: unlimited
  | Maximum stacksize for task 47: unlimited
  | Maximum stacksize for task 48: unlimited
  | Maximum stacksize for task 49: unlimited
  | Maximum stacksize for task 50: unlimited
  | Maximum stacksize for task 51: unlimited
  | Maximum stacksize for task 52: unlimited
  | Maximum stacksize for task 53: unlimited
  | Maximum stacksize for task 54: unlimited
  | Maximum stacksize for task 55: unlimited
  | Maximum stacksize for task 56: unlimited
  | Maximum stacksize for task 57: unlimited
  | Maximum stacksize for task 58: unlimited
  | Maximum stacksize for task 59: unlimited
  | Maximum stacksize for task 60: unlimited
  | Maximum stacksize for task 61: unlimited
  | Maximum stacksize for task 62: unlimited
  | Maximum stacksize for task 63: unlimited
  | Current stacksize for task 0: unlimited
  | Current stacksize for task 1: unlimited
  | Current stacksize for task 2: unlimited
  | Current stacksize for task 3: unlimited
  | Current stacksize for task 4: unlimited
  | Current stacksize for task 5: unlimited
  | Current stacksize for task 6: unlimited
  | Current stacksize for task 7: unlimited
  | Current stacksize for task 8: unlimited
  | Current stacksize for task 9: unlimited
  | Current stacksize for task 10: unlimited
  | Current stacksize for task 11: unlimited
  | Current stacksize for task 12: unlimited
  | Current stacksize for task 13: unlimited
  | Current stacksize for task 14: unlimited
  | Current stacksize for task 15: unlimited
  | Current stacksize for task 16: unlimited
  | Current stacksize for task 17: unlimited
  | Current stacksize for task 18: unlimited
  | Current stacksize for task 19: unlimited
  | Current stacksize for task 20: unlimited
  | Current stacksize for task 21: unlimited
  | Current stacksize for task 22: unlimited
  | Current stacksize for task 23: unlimited
  | Current stacksize for task 24: unlimited
  | Current stacksize for task 25: unlimited
  | Current stacksize for task 26: unlimited
  | Current stacksize for task 27: unlimited
  | Current stacksize for task 28: unlimited
  | Current stacksize for task 29: unlimited
  | Current stacksize for task 30: unlimited
  | Current stacksize for task 31: unlimited
  | Current stacksize for task 32: unlimited
  | Current stacksize for task 33: unlimited
  | Current stacksize for task 34: unlimited
  | Current stacksize for task 35: unlimited
  | Current stacksize for task 36: unlimited
  | Current stacksize for task 37: unlimited
  | Current stacksize for task 38: unlimited
  | Current stacksize for task 39: unlimited
  | Current stacksize for task 40: unlimited
  | Current stacksize for task 41: unlimited
  | Current stacksize for task 42: unlimited
  | Current stacksize for task 43: unlimited
  | Current stacksize for task 44: unlimited
  | Current stacksize for task 45: unlimited
  | Current stacksize for task 46: unlimited
  | Current stacksize for task 47: unlimited
  | Current stacksize for task 48: unlimited
  | Current stacksize for task 49: unlimited
  | Current stacksize for task 50: unlimited
  | Current stacksize for task 51: unlimited
  | Current stacksize for task 52: unlimited
  | Current stacksize for task 53: unlimited
  | Current stacksize for task 54: unlimited
  | Current stacksize for task 55: unlimited
  | Current stacksize for task 56: unlimited
  | Current stacksize for task 57: unlimited
  | Current stacksize for task 58: unlimited
  | Current stacksize for task 59: unlimited
  | Current stacksize for task 60: unlimited
  | Current stacksize for task 61: unlimited
  | Current stacksize for task 62: unlimited
  | Current stacksize for task 63: unlimited
 
  Consistency checks for the contents of control.in are next.
 
  MPI_IN_PLACE appears to work with this MPI implementation.
  | Keeping use_mpi_in_place .true. (see manual).
  Species C: Using default value for prodbas_acc =   1.000000E-04.
  Species C: Using default value max_l_prodbas =    20.
  Species O: Using default value for prodbas_acc =   1.000000E-04.
  Species O: Using default value max_l_prodbas =    20.
  Species H: Using default value for prodbas_acc =   1.000000E-04.
  Species H: Using default value max_l_prodbas =    20.
  Target number of points in a grid batch is not set. Defaulting to  100
  Method for grid partitioning is not set. Defaulting to parallel hash+maxmin partitioning.
  Batch size limit is not set. Defaulting to    200
  By default, will store active basis functions for each batch.
  If in need of memory, prune_basis_once .false. can be used to disable this option.
  communication_type for Hartree potential was not specified.
  Defaulting to calc_hartree .
  Pulay mixer: Number of initial linear mixing iterations not set.
  Defaulting to    0 iterations.
  Work space size for distributed Hartree potential not set.
  Defaulting to   0.200000E+03 MB.
  Mixing parameter for charge density mixing has not been set.
  Using default: charge_mix_param =     0.0500.
  The mixing parameter will be adjusted in iteration number     2 of each s.c.f. cycle (i.e., each geometry step).
  Algorithm-dependent basis array size parameters:
  | n_max_pulay                         :       10
  Maximum number of self-consistency iterations not provided.
  Presetting  1000 iterations.
  Presetting      1001 iterations before the initial mixing cycle
  is restarted anyway using the sc_init_iter criterion / keyword.
  Presetting a factor      1.000 between actual scf density residual
  and density convergence criterion sc_accuracy_rho below which sc_init_iter
  takes no effect.
 * No s.c.f. convergence criteria (sc_accuracy_*) were provided in control.in.
 * The run will proceed with a reasonable default guess, but please check whether.
 * the s.c.f. cycles seem to take too much or too little time.
  Calculation of forces was not defined in control.in. No forces will be calculated.
  Geometry relaxation not requested: no relaxation will be performed.
 * Notice: The s.c.f. convergence criterion sc_accuracy_rho was not provided.
 * We used to stop in this case, and ask the user to provide reasonable
 * scf convergence criteria. However, this led some users to employ criteria
 * that led to extremely long run times, e.g., for simple relaxation.
 * We now preset a default value for sc_accuracy_rho if it is not set.
 * You may still wish to check if this setting is too tight or too loose for your needs.
 * Based on n_atoms and forces and force-correction status, FHI-aims chose sc_accuracy_rho =  0.166533E-04 .
  No accuracy limit for integral partition fn. given. Defaulting to  0.1000E-14.
  No threshold value for u(r) in integrations given. Defaulting to  0.1000E-05.
  No accuracy for occupation numbers given. Defaulting to  0.1000E-12.
  No threshold value for occupation numbers given. Defaulting to  0.0000E+00.
  No accuracy for fermi level given. Defaulting to  0.1000E-19.
  Maximum # of iterations to find E_F not set. Defaulting to  200.
  Will not use alltoall communication since running on < 1024 CPUs.
  partition_type (choice of integration weights) for integrals was not specified.
  | Using a version of the partition function of Stratmann and coworkers ('stratmann_sparse').
  | At each grid point, the set of atoms used to build the partition table is smoothly restricted to
  | only those atoms whose free-atom density would be non-zero at that grid point.
  Partitioning for Hartree potential was not defined. Using partition_type for integrals.
  | Adjusted default value of keyword multip_moments_threshold to:       0.10000000E-11
  | This value may affect high angular momentum components of the Hartree potential in periodic systems.
  Spin handling was not defined in control.in. Defaulting to unpolarized case.
  Threshold for auxiliary basis singularities not set.
  Default threshold for auxiliary basis singularities:  0.1000E-04
  Use default threshold for vanishing multipole moments of auxiliary basis:  0.1000E-07
  No q(lm)/r^(l+1) cutoff set for long-range Hartree potential.
  | Using default value of  0.100000E-09 .
  | Verify using the multipole_threshold keyword.
  Defaulting to new monopole extrapolation.
  Density update method: density matrix based density update selected.
  Scalapack and density-matrix based density update required:
  Switching to packed matrix format "index" by default.
  Charge integration errors on the 3D integration grid will be compensated
  by explicit normalization and distribution of residual charges.
  Use the "compensate_multipole_errors" flag to change this behaviour.
  Default to 1D ("use_logsbt") integrations for auxiliary 2-center integrals.
  Default onset of logarithmic r-grid for SBT is -38.000000000000
  Default onset of logarithmic k-grid for SBT is -25.000000000000
  Default range of logarithmic r- and k-grid for SBT is  45.000000000000
  Default number of logarithmic r- and k-grid for SBT is   4096
  Set 'collect_eigenvectors' to be '.true.' for GW/RPA/MP2, SCREX/COHSEX cluster calculations
  Set 'collect_eigenvectors' to be '.true.' for qpe_calc (quasiparticle energy).
  Found no potential conflicts with setting 'use_local_index' for this calculation.
  Flag 'use_local_index' has not been set.
  Testing whether we classify this calculation as large-scale ...
  The calculation contains less than 100 atoms. This is most likely not a large-scale calculation.
  Not setting 'use_local_index'.
 
  Consistency checks for the contents of geometry.in are next.
 
 * Warning: Initial charge and total charge of the system are inconsistent.
 * Selected charge in control.in:    -2.0000
 * Sum of initial charges in geometry.in:     0.0000
  Number of empty states per atom not set in control.in .
  | Since you are using a method that relies on the unoccupied spectrum
  | (MP2,GW,RPA et al.), will use the full Hamiltonian size (see below)
  | as the max. possible number of states (occupied plus empty).

  Structure-dependent array size parameters: 
  | Maximum number of distinct radial functions  :       29
  | Maximum number of basis functions            :      702
  | Number of Kohn-Sham states (occupied + empty):      702
------------------------------------------------------------
  After read_input_data [GB]:    223.84

  Performing system and environment tests:
  | Environment variable OMP_NUM_THREADS correctly set to 1.
  | Checking for ScaLAPACK...
  | Testing pdtran()...
  | All pdtran() tests passed.
  | Testing CPU compatibility for run-time vs. build-time.
  | Reading /proc/cpuinfo for CPU information ...
  | Built for  : AMD EPYC 7502 32-Core Processor
  | Running on : AMD EPYC 7502 32-Core Processor
  | Runtime CPU compatibility verified.
  
  After prepare_system [GB]:    223.87

------------------------------------------------------------
          Preparing all fixed parts of the calculation.
------------------------------------------------------------
  Determining machine precision:
    2.225073858507201E-308
  Setting up grids for atomic and cluster calculations.

  Creating wave function, potential, and density for free atoms.
  Runtime choices for atomic solver:
  | atomic solver xc        : PBE
  | compute density gradient: 1
  | compute kinetic density : F

  Species: C

  List of occupied orbitals and eigenvalues:
    n    l              occ      energy [Ha]    energy [eV]
    1    0           2.0000       -10.049212      -273.4530
    2    0           2.0000        -0.504761       -13.7352
    2    1           2.0000        -0.193631        -5.2690


  Species: O

  List of occupied orbitals and eigenvalues:
    n    l              occ      energy [Ha]    energy [eV]
    1    0           2.0000       -18.927378      -515.0401
    2    0           2.0000        -0.880539       -23.9607
    2    1           4.0000        -0.331811        -9.0290


  Species: H

  List of occupied orbitals and eigenvalues:
    n    l              occ      energy [Ha]    energy [eV]
    1    0           1.0000        -0.238386        -6.4868


  Adding cutoff potential to free-atom effective potential.
  Creating fixed part of basis set: Ionic, confined, hydrogenic.
 
  C                    hydrogenic:
 
  List of hydrogenic basis orbitals: 
    n    l      effective z      eigenvalue [eV]  inner max. [A]     outer max. [A]     outer radius [A]   
    2    1         1.700000        -9.8152           1.245706           1.245706           5.401630
    3    2         6.000000       -54.4226           0.792453           0.792453           4.178599
    2    0         4.900000       -81.6681           0.082559           0.562749           3.353238
    4    3         9.800000       -81.6681           0.863254           0.863254           4.028125
    3    1         5.200000       -40.8774           0.305389           1.215618           4.898362
    3    0         4.300000       -27.9508           0.091041           1.610311           5.401630
    5    4        14.400000      -112.8510           0.917666           0.917666           3.883070
    3    2         6.200000       -58.1113           0.763917           0.763917           4.077671
 
 
  O                    hydrogenic:
 
  List of hydrogenic basis orbitals: 
    n    l      effective z      eigenvalue [eV]  inner max. [A]     outer max. [A]     outer radius [A]   
    2    1         1.800000       -11.0118           1.178562           1.178562           5.432602
    3    2         7.600000       -87.3182           0.624125           0.624125           3.541477
    3    0         6.400000       -61.9209           0.061167           1.081902           4.306578
    4    3        11.600000      -114.4238           0.731631           0.731631           3.585037
    3    1         6.200000       -58.1113           0.255680           1.030270           4.306578
    3    2         5.600000       -47.4081           0.847233           0.847233           4.413171
    5    4        17.600000      -168.5799           0.749740           0.749740           3.372465
    1    0         0.750000        -7.6499           0.705284           0.705284           5.366593
 
 
  H                    hydrogenic:
 
  List of hydrogenic basis orbitals: 
    n    l      effective z      eigenvalue [eV]  inner max. [A]     outer max. [A]     outer radius [A]   
    2    0         2.100000       -14.9965           0.193243           1.317208           5.373006
    2    1         3.500000       -41.6672           0.602369           0.602369           4.056063
    1    0         0.850000        -9.8292           0.624871           0.624871           5.373006
    2    1         3.700000       -46.5653           0.573622           0.573622           3.910002
    2    0         1.200000        -4.5995           0.334980           2.228188           5.505995
    3    2         7.000000       -74.0753           0.680699           0.680699           3.769201
 
  Creating atomic-like basis functions for current effective potential.

  Species C                   :

  List of atomic basis orbitals and eigenvalues:
    n    l      energy [Ha]    energy [eV]    outer radius [A]
    1    0       -10.049212      -273.4530       1.934409
    2    0        -0.504761       -13.7352       5.271162
    2    1        -0.193631        -5.2690       5.401630


  Species O                   :

  List of atomic basis orbitals and eigenvalues:
    n    l      energy [Ha]    energy [eV]    outer radius [A]
    1    0       -18.927378      -515.0401       1.415765
    2    0        -0.880539       -23.9607       5.048385
    2    1        -0.331811        -9.0290       5.301386


  Species H                   :

  List of atomic basis orbitals and eigenvalues:
    n    l      energy [Ha]    energy [eV]    outer radius [A]
    1    0        -0.238386        -6.4868       5.373006

  Assembling full basis from fixed parts.
  | Species C :   atomic orbital   1 s accepted.
  | Species C :    hydro orbital   2 s accepted.
  | Species C :   atomic orbital   2 s accepted.
  | Species C :    hydro orbital   3 s accepted.
  | Species C :    hydro orbital   3 p accepted.
  | Species C :   atomic orbital   2 p accepted.
  | Species C :    hydro orbital   2 p accepted.
  | Species C :    hydro orbital   3 d accepted.
  | Species C :    hydro orbital   3 d accepted.
  | Species C :    hydro orbital   4 f accepted.
  | Species C :    hydro orbital   5 g accepted.
  | Species O :   atomic orbital   1 s accepted.
  | Species O :    hydro orbital   3 s accepted.
  | Species O :   atomic orbital   2 s accepted.
  | Species O :    hydro orbital   1 s accepted.
  | Species O :    hydro orbital   3 p accepted.
  | Species O :   atomic orbital   2 p accepted.
  | Species O :    hydro orbital   2 p accepted.
  | Species O :    hydro orbital   3 d accepted.
  | Species O :    hydro orbital   3 d accepted.
  | Species O :    hydro orbital   4 f accepted.
  | Species O :    hydro orbital   5 g accepted.
  | Species H :   atomic orbital   1 s accepted.
  | Species H :    hydro orbital   2 s accepted.
  | Species H :    hydro orbital   1 s accepted.
  | Species H :    hydro orbital   2 s accepted.
  | Species H :    hydro orbital   2 p accepted.
  | Species H :    hydro orbital   2 p accepted.
  | Species H :    hydro orbital   3 d accepted.
 
  Basis size parameters after reduction:
  | Total number of radial functions:       29
  | Total number of basis functions :      702
 
  Per-task memory consumption for arrays in subroutine allocate_ext:
  |           9.677684MB.
  Testing on-site integration grid accuracy.
  |  Species  Function  <phi|h_atom|phi> (log., in eV)  <phi|h_atom|phi> (rad., in eV)
           1        1               -273.4529725981               -273.4529710451
           1        2                -10.7721037329                -10.7721022102
           1        3                 17.6044132585                 17.6044162052
           1        4                 53.7706460564                 53.7706913681
           1        5                 15.0973290351                 15.0973256011
           1        6                  3.8545134677                  3.8545724657
           1        7                 12.1156992586                 12.1182024423
           1        8                 29.4352039288                 29.4352041805
           1        9                 54.8741144697                 54.8740268719
           1       10                 59.3556032036                 59.3556031370
           1       11                 93.4551837140                 93.4551837996
           2       12               -515.0401491148               -515.0401445497
           2       13                 15.1629302771                 15.1629233102
           2       14                -21.6127103295                -21.6127145449
           2       15                 14.4001435709                 14.4001765990
           2       16                 20.8862585187                 20.8862589491
           2       17                 -2.4803658578                 -2.4803665016
           2       18                 13.8586387760                 13.8586021622
           2       19                 45.8331828879                 45.8331828941
           2       20                 52.1851961049                 52.1851977023
           2       21                 85.4133898762                 85.4133899074
           2       22                142.1023296234                142.1023296272
           3       23                 -6.4870767962                 -6.4871688290
           3       24                 13.5032046589                 13.5028982997
           3       25                 32.8195184817                 32.8119941656
           3       26                 33.8513856511                 33.7670005767 ***
           3       27                 28.8544614965                 28.8544615203
           3       28                 59.6326952547                 59.6327656460
           3       29                 60.2719308513                 60.2719305949
 * Note: Onsite integrals marked "***" above are less accurate than
 * onsite_accuracy_threshold =    0.03000 eV. Usually, this is harmless.
 * When in doubt, tighten the "radial" and/or "radial_multiplier" flags to check.

  Preparing densities etc. for the partition functions (integrals / Hartree potential).

  Preparations completed.
  max(cpu_time)          :      0.152 s.
  Wall clock time (cpu1) :      0.152 s.
------------------------------------------------------------
  After prepare_scf [GB]:    224.40

  Initializing index lists of integration centers etc. from given atomic structure:
  | Number of centers in hartree potential                       :        26
  | Number of centers in hartree multipole                       :        26
  | Number of centers in electron density summation              :        26
  | Number of centers in basis integrals                         :        26
  | Number of centers in integrals                               :        26
  | Number of centers in hamiltonian                             :        26
  | Number of centers in partition table from touching 0-cell    :        26
  | Number of centers in partition table total                   :        26
  After initialize_bc_dependent_lists [GB]:    224.40

  Initializing index lists of integration centers etc. from given atomic structure:
  | Number of centers in hartree potential                       :        26
  | Number of centers in hartree multipole                       :        26
  | Number of centers in electron density summation              :        26
  | Number of centers in basis integrals                         :        26
  | Number of centers in integrals                               :        26
  | Number of centers in hamiltonian                             :        26
  | Number of centers in partition table from touching 0-cell    :        26
  | Number of centers in partition table total                   :        26

------------------------------------------------------------
          Begin self-consistency loop: Initialization.

          Date     :  20251111, Time     :  180553.990
------------------------------------------------------------
  Available memory per node after initialize_hartree_non_periodic_ewald [GB]:    224.40
  Available memory per node after initialize_recip_hartree_potential [GB]:    224.40
  * Using 64 tasks for Scalapack Eigenvalue solver.
  Detailed listing of tasks and assigned k-points:
  (for non-periodic systems, the "k-point" denotes an internal label only)
   Task     0 k-point     1 on cca9062
   Task     1 k-point     1 on cca9062
   Task     2 k-point     1 on cca9062
   Task     3 k-point     1 on cca9062
   Task     4 k-point     1 on cca9062
   Task     5 k-point     1 on cca9062
   Task     6 k-point     1 on cca9062
   Task     7 k-point     1 on cca9062
   Task     8 k-point     1 on cca9062
   Task     9 k-point     1 on cca9062
   Task    10 k-point     1 on cca9062
   Task    11 k-point     1 on cca9062
   Task    12 k-point     1 on cca9062
   Task    13 k-point     1 on cca9062
   Task    14 k-point     1 on cca9062
   Task    15 k-point     1 on cca9062
   Task    16 k-point     1 on cca9062
   Task    17 k-point     1 on cca9062
   Task    18 k-point     1 on cca9062
   Task    19 k-point     1 on cca9062
   Task    20 k-point     1 on cca9062
   Task    21 k-point     1 on cca9062
   Task    22 k-point     1 on cca9062
   Task    23 k-point     1 on cca9062
   Task    24 k-point     1 on cca9062
   Task    25 k-point     1 on cca9062
   Task    26 k-point     1 on cca9062
   Task    27 k-point     1 on cca9062
   Task    28 k-point     1 on cca9062
   Task    29 k-point     1 on cca9062
   Task    30 k-point     1 on cca9062
   Task    31 k-point     1 on cca9062
   Task    32 k-point     1 on cca9062
   Task    33 k-point     1 on cca9062
   Task    34 k-point     1 on cca9062
   Task    35 k-point     1 on cca9062
   Task    36 k-point     1 on cca9062
   Task    37 k-point     1 on cca9062
   Task    38 k-point     1 on cca9062
   Task    39 k-point     1 on cca9062
   Task    40 k-point     1 on cca9062
   Task    41 k-point     1 on cca9062
   Task    42 k-point     1 on cca9062
   Task    43 k-point     1 on cca9062
   Task    44 k-point     1 on cca9062
   Task    45 k-point     1 on cca9062
   Task    46 k-point     1 on cca9062
   Task    47 k-point     1 on cca9062
   Task    48 k-point     1 on cca9062
   Task    49 k-point     1 on cca9062
   Task    50 k-point     1 on cca9062
   Task    51 k-point     1 on cca9062
   Task    52 k-point     1 on cca9062
   Task    53 k-point     1 on cca9062
   Task    54 k-point     1 on cca9062
   Task    55 k-point     1 on cca9062
   Task    56 k-point     1 on cca9062
   Task    57 k-point     1 on cca9062
   Task    58 k-point     1 on cca9062
   Task    59 k-point     1 on cca9062
   Task    60 k-point     1 on cca9062
   Task    61 k-point     1 on cca9062
   Task    62 k-point     1 on cca9062
   Task    63 k-point     1 on cca9062
  Tasks:    64 split into      8 X      8 BLACS grid
  Calculating block size based on n_basis =          702  max_nprow =            8  max_npcol =            8
  ScaLAPACK block size set to:           16
  Allocating        0.070 MB for ovlp
  Allocating        0.070 MB for ham
  Allocating        0.070 MB for eigenvec
  Required Scalapack workspace - INTEGER:            1  REAL:             1
  Available memory per node after initialize_scalapack [GB]:    224.40
  Available memory per node after aims_elsi_init_scf [GB]:    224.40
  Available memory per node after initialize_fixed_grids [GB]:    224.40
  Partitioning the integration grid into batches with parallel hashing+maxmin method.
  | Number of batches:     4605
  | Maximal batch size:     200
  | Minimal batch size:       8
  | Average batch size:      93.617
  | Standard deviation of batch sizes:      29.694

  Integration load balanced across    64 MPI tasks.
  Work distribution over tasks is as follows:
  Task     0 has       6695 integration points.
  Task     1 has       6697 integration points.
  Task     2 has       6700 integration points.
  Task     3 has       6695 integration points.
  Task     4 has       6735 integration points.
  Task     5 has       6700 integration points.
  Task     6 has       6697 integration points.
  Task     7 has       6778 integration points.
  Task     8 has       6705 integration points.
  Task     9 has       6695 integration points.
  Task    10 has       6775 integration points.
  Task    11 has       6747 integration points.
  Task    12 has       6784 integration points.
  Task    13 has       6776 integration points.
  Task    14 has       6746 integration points.
  Task    15 has       6687 integration points.
  Task    16 has       6741 integration points.
  Task    17 has       6783 integration points.
  Task    18 has       6773 integration points.
  Task    19 has       6684 integration points.
  Task    20 has       6795 integration points.
  Task    21 has       6732 integration points.
  Task    22 has       6775 integration points.
  Task    23 has       6786 integration points.
  Task    24 has       6782 integration points.
  Task    25 has       6783 integration points.
  Task    26 has       6786 integration points.
  Task    27 has       6701 integration points.
  Task    28 has       6776 integration points.
  Task    29 has       6684 integration points.
  Task    30 has       6700 integration points.
  Task    31 has       6783 integration points.
  Task    32 has       6680 integration points.
  Task    33 has       6799 integration points.
  Task    34 has       6698 integration points.
  Task    35 has       6736 integration points.
  Task    36 has       6692 integration points.
  Task    37 has       6684 integration points.
  Task    38 has       6738 integration points.
  Task    39 has       6696 integration points.
  Task    40 has       6795 integration points.
  Task    41 has       6743 integration points.
  Task    42 has       6701 integration points.
  Task    43 has       6743 integration points.
  Task    44 has       6711 integration points.
  Task    45 has       6749 integration points.
  Task    46 has       6780 integration points.
  Task    47 has       6688 integration points.
  Task    48 has       6705 integration points.
  Task    49 has       6788 integration points.
  Task    50 has       6691 integration points.
  Task    51 has       6786 integration points.
  Task    52 has       6787 integration points.
  Task    53 has       6695 integration points.
  Task    54 has       6791 integration points.
  Task    55 has       6706 integration points.
  Task    56 has       6743 integration points.
  Task    57 has       6695 integration points.
  Task    58 has       6786 integration points.
  Task    59 has       6746 integration points.
  Task    60 has       6703 integration points.
  Task    61 has       6727 integration points.
  Task    62 has       6756 integration points.
  Task    63 has       6690 integration points.
  Available memory per node after partition_grid [GB]:    224.41
  Initializing partition tables, free-atom densities, potentials, etc. across the integration grid (initialize_grid_storage).
  | initialize_grid_storage: Actual outermost partition radius vs. multipole_radius_free
  | (-- VB: in principle, multipole_radius_free should be larger, hence this output)
  | Species        1: Confinement radius =              6.000000000000000 AA, multipole_radius_free =              6.029870734432609 AA.
  | Species        1: outer_partition_radius set to              6.029870734432609 AA .
  | Species        2: Confinement radius =              6.000000000000000 AA, multipole_radius_free =              6.064445521808699 AA.
  | Species        2: outer_partition_radius set to              6.064445521808699 AA .
  | Species        3: Confinement radius =              6.000000000000000 AA, multipole_radius_free =              6.071692442739658 AA.
  | Species        3: outer_partition_radius set to              6.071692442739658 AA .
  | The sparse table of interatomic distances needs          7.91 kbyte instead of         5.41 kbyte of memory.
  | Using the partition_type stratmann_smoother will reduce your memory usage.
  | Net number of integration points:   431104
  | of which are non-zero points    :   348563
  Available memory per node after initialize_grid_storage_p1 [GB]:    224.42
  Renormalizing the initial density to the exact electron count on the 3D integration grid.
  | Initial density: Formal number of electrons (from input files) :      46.0000000000
  | Integrated number of electrons on 3D grid     :      46.0000028625
  | Charge integration error                      :       0.0000028625
  | Normalization factor for density and gradient :       0.9999999378
  Renormalizing the free-atom superposition density to the exact electron count on the 3D integration grid.
  | Formal number of electrons (from input files) :      48.0000000000
  | Integrated number of electrons on 3D grid     :      46.0000028625
  | Charge integration error                      :       0.0000028625
  | Normalization factor for density and gradient :       0.9999999378
  Obtaining max. number of non-zero basis functions in each batch (get_n_compute_maxes).
  | Maximal number of non-zero basis functions:      477 in task     0
  | Maximal number of non-zero basis functions:      491 in task     1
  | Maximal number of non-zero basis functions:      490 in task     2
  | Maximal number of non-zero basis functions:      512 in task     3
  | Maximal number of non-zero basis functions:      523 in task     4
  | Maximal number of non-zero basis functions:      494 in task     5
  | Maximal number of non-zero basis functions:      499 in task     6
  | Maximal number of non-zero basis functions:      494 in task     7
  | Maximal number of non-zero basis functions:      494 in task     8
  | Maximal number of non-zero basis functions:      503 in task     9
  | Maximal number of non-zero basis functions:      520 in task    10
  | Maximal number of non-zero basis functions:      498 in task    11
  | Maximal number of non-zero basis functions:      491 in task    12
  | Maximal number of non-zero basis functions:      496 in task    13
  | Maximal number of non-zero basis functions:      492 in task    14
  | Maximal number of non-zero basis functions:      491 in task    15
  | Maximal number of non-zero basis functions:      495 in task    16
  | Maximal number of non-zero basis functions:      515 in task    17
  | Maximal number of non-zero basis functions:      492 in task    18
  | Maximal number of non-zero basis functions:      496 in task    19
  | Maximal number of non-zero basis functions:      493 in task    20
  | Maximal number of non-zero basis functions:      514 in task    21
  | Maximal number of non-zero basis functions:      511 in task    22
  | Maximal number of non-zero basis functions:      502 in task    23
  | Maximal number of non-zero basis functions:      507 in task    24
  | Maximal number of non-zero basis functions:      493 in task    25
  | Maximal number of non-zero basis functions:      524 in task    26
  | Maximal number of non-zero basis functions:      485 in task    27
  | Maximal number of non-zero basis functions:      498 in task    28
  | Maximal number of non-zero basis functions:      496 in task    29
  | Maximal number of non-zero basis functions:      488 in task    30
  | Maximal number of non-zero basis functions:      496 in task    31
  | Maximal number of non-zero basis functions:      495 in task    32
  | Maximal number of non-zero basis functions:      492 in task    33
  | Maximal number of non-zero basis functions:      525 in task    34
  | Maximal number of non-zero basis functions:      489 in task    35
  | Maximal number of non-zero basis functions:      487 in task    36
  | Maximal number of non-zero basis functions:      502 in task    37
  | Maximal number of non-zero basis functions:      490 in task    38
  | Maximal number of non-zero basis functions:      494 in task    39
  | Maximal number of non-zero basis functions:      488 in task    40
  | Maximal number of non-zero basis functions:      493 in task    41
  | Maximal number of non-zero basis functions:      475 in task    42
  | Maximal number of non-zero basis functions:      494 in task    43
  | Maximal number of non-zero basis functions:      505 in task    44
  | Maximal number of non-zero basis functions:      496 in task    45
  | Maximal number of non-zero basis functions:      494 in task    46
  | Maximal number of non-zero basis functions:      486 in task    47
  | Maximal number of non-zero basis functions:      505 in task    48
  | Maximal number of non-zero basis functions:      505 in task    49
  | Maximal number of non-zero basis functions:      493 in task    50
  | Maximal number of non-zero basis functions:      492 in task    51
  | Maximal number of non-zero basis functions:      490 in task    52
  | Maximal number of non-zero basis functions:      487 in task    53
  | Maximal number of non-zero basis functions:      489 in task    54
  | Maximal number of non-zero basis functions:      504 in task    55
  | Maximal number of non-zero basis functions:      510 in task    56
  | Maximal number of non-zero basis functions:      511 in task    57
  | Maximal number of non-zero basis functions:      486 in task    58
  | Maximal number of non-zero basis functions:      498 in task    59
  | Maximal number of non-zero basis functions:      494 in task    60
  | Maximal number of non-zero basis functions:      499 in task    61
  | Maximal number of non-zero basis functions:      519 in task    62
  | Maximal number of non-zero basis functions:      506 in task    63
  Available memory per node after get_n_compute_maxes_p1 [GB]:    224.42
  Hamiltonian matrix size:
  | Size of matrix non-packed:                246753
  | Size of matrix packed:          219933
  Allocating        3.760 MB for KS_eigenvector
  Available memory per node after allocate_matrices [GB]:    224.26
  Available memory per node after init_comm_sparse_local_matrix_scalapack [GB]:    224.26
  Integrating Hamiltonian matrix: batch-based integration.
  Time summed over all CPUs for integration: real work        9.016 s, elapsed       10.028 s
  Available memory per node after integrate hamiltonian matrix [GB]:    224.01
  Integrating overlap matrix.
  Time summed over all CPUs for integration: real work        5.011 s, elapsed        5.385 s
  Available memory per node after integrate ovlp matrix [GB]:    224.01
  Not deallocating overlap matrix.
  Available memory per node after save_overlap_scalapack [GB]:    224.01
  Available memory per node after advance_KS_solution [GB]:    224.01
  Calculating total energy contributions from superposition of free atom densities.
  Initialize hartree_potential_storage
  Max. number of atoms included in rho_multipole:           26

  End scf initialization - timings             :  max(cpu_time)    wall_clock(cpu1)
  | Time for scf. initialization                :        0.532 s           0.532 s
  | Boundary condition initialization           :        0.007 s           0.007 s
  | Integration                                 :        0.259 s           0.259 s
  | Grid partitioning                           :        0.206 s           0.205 s
  | Preloading free-atom quantities on grid     :        0.061 s           0.061 s
  | Free-atom superposition energy              :        0.004 s           0.005 s

  Partial memory accounting:
  | Current value for overall tracked memory usage:
  |   Minimum:        8.152 MB (on task 36)
  |   Maximum:        8.238 MB (on task  0)
  |   Average:        8.191 MB
  | Peak value for overall tracked memory usage:
  |   Minimum:       12.039 MB (on task 42 after allocating wave)
  |   Maximum:       12.668 MB (on task 26 after allocating wave)
  |   Average:       12.315 MB
  | Largest tracked array allocation so far:
  |   Minimum:        3.760 MB (KS_eigenvector on task  0)
  |   Maximum:        3.760 MB (KS_eigenvector on task  0)
  |   Average:        3.760 MB
  Note:  These values currently only include a subset of arrays which are explicitly tracked.
  The "true" memory usage will be greater.
------------------------------------------------------------
  Available memory after allocating mixing [GB]:    223.99
  Evaluating new KS density using the density matrix
  Evaluating density matrix
  Finished reading density matrices from file
  | Time :      0.000 s

  Time summed over all CPUs for getting density from density matrix: real work       19.932 s, elapsed       21.415 s
  Integration grid: deviation in total charge (<rho> - N_e) =   1.293528E-04

  Time for density update prior                :  max(cpu_time)    wall_clock(cpu1)
  | self-consistency iterative process          :        0.342 s           0.341 s
  Available memory before start of SCF loop [GB]:    223.80

------------------------------------------------------------
          Initial SCF-cycle to compute last known
          density from restart information.

  Date     :  20251111, Time     :  180554.865
------------------------------------------------------------
  Available memory per node after mixing [GB]:    223.80
  Renormalizing the density to the exact electron count on the 3D integration grid.
  | Formal number of electrons (from input files) :      48.0000000000
  | Integrated number of electrons on 3D grid     :      48.0001293528
  | Charge integration error                      :       0.0001293528
  | Normalization factor for density and gradient :       0.9999973052

  Evaluating partitioned Hartree potential by multipole expansion.
  | Original multipole sum: apparent total charge =  -0.200000E+01
  | Sum of charges compensated after spline to logarithmic grids =  -0.120099E-05
  | Analytical far-field extrapolation by fixed multipoles:
  | Hartree multipole sum: apparent total charge =  -0.200000E+01
  Summing up the Hartree potential.
  Time summed over all CPUs for potential: real work        0.044 s, elapsed        0.046 s
  | RMS charge density error from multipole expansion :   0.929897E-02

  Integrating Hamiltonian matrix: batch-based integration.
  Time summed over all CPUs for integration: real work        9.023 s, elapsed        9.981 s

  Updating Kohn-Sham eigenvalues and eigenvectors using ELSI and the ELPA eigensolver.
  Overlap matrix is not singular
  | Lowest and highest eigenvalues :  0.1411E-03,  0.9818E+01
  Finished singularity check of overlap matrix
  | Time :     0.017 s
  Starting ELPA eigensolver
  Finished Cholesky decomposition
  | Time :     0.004 s
  Finished transformation to standard eigenproblem
  | Time :     0.002 s
  Finished solving standard eigenproblem
  | Time :     0.025 s
  Finished back-transformation of eigenvectors
  | Time :     0.001 s

  Obtaining occupation numbers and electronic chemical potential using ELSI.
  | Note that, for insulating systems, the printed 'chemical potential' value is not uniquely defined.
  | It can be anywhere in the energy gap, as long as it correctly separates occupied and unoccupied states.
  | In systems with a gap, the physically relevant chemical potential is the VBM or HOMO.

  | Chemical potential (Fermi level):    -1.50778589 eV
  Writing Kohn-Sham eigenvalues.

  State    Occupation    Eigenvalue [Ha]    Eigenvalue [eV]
      1       2.00000         -18.816419         -512.02081
      2       2.00000         -18.815638         -511.99957
      3       2.00000         -18.785860         -511.18927
      4       2.00000         -18.783383         -511.12185
      5       2.00000         -10.031274         -272.96486
      6       2.00000         -10.027435         -272.86038
      7       2.00000          -1.017976          -27.70053
      8       2.00000          -1.004192          -27.32546
      9       2.00000          -0.932501          -25.37465
     10       2.00000          -0.918383          -24.99049
     11       2.00000          -0.601509          -16.36788
     12       2.00000          -0.567956          -15.45488
     13       2.00000          -0.490251          -13.34041
     14       2.00000          -0.450704          -12.26428
     15       2.00000          -0.436789          -11.88562
     16       2.00000          -0.420766          -11.44963
     17       2.00000          -0.398422          -10.84162
     18       2.00000          -0.388417          -10.56937
     19       2.00000          -0.370420          -10.07964
     20       2.00000          -0.321920           -8.75989
     21       2.00000          -0.291412           -7.92971
     22       2.00000          -0.279285           -7.59974
     23       2.00000          -0.255259           -6.94595
     24       2.00000          -0.247811           -6.74328
     25       0.00000          -0.053511           -1.45612
     26       0.00000          -0.041869           -1.13932
     27       0.00000          -0.009323           -0.25369
     28       0.00000          -0.002935           -0.07985
     29       0.00000           0.010089            0.27454
     30       0.00000           0.013436            0.36560
     31       0.00000           0.021645            0.58900
     32       0.00000           0.038133            1.03765
     33       0.00000           0.044921            1.22237
     34       0.00000           0.045616            1.24128
     35       0.00000           0.054647            1.48701
     36       0.00000           0.058363            1.58814
     37       0.00000           0.063689            1.73306
     38       0.00000           0.069884            1.90165
     39       0.00000           0.086057            2.34173
     40       0.00000           0.092720            2.52304
     41       0.00000           0.101278            2.75590
     42       0.00000           0.102423            2.78706
     43       0.00000           0.117346            3.19313
     44       0.00000           0.124140            3.37803
     45       0.00000           0.128755            3.50359
     46       0.00000           0.130733            3.55741
     47       0.00000           0.141379            3.84713
     48       0.00000           0.145436            3.95750
     49       0.00000           0.149020            4.05505
     50       0.00000           0.157451            4.28445
     51       0.00000           0.160266            4.36106
     52       0.00000           0.167355            4.55396
     53       0.00000           0.172458            4.69282
     54       0.00000           0.176058            4.79079
     55       0.00000           0.181895            4.94961
     56       0.00000           0.184058            5.00848
     57       0.00000           0.194532            5.29349
[...]
  | Number of local auxiliary basis functions on task:     38    80
  | Number of local auxiliary basis functions on task:     39    80
  | Number of local auxiliary basis functions on task:     40    80
  | Number of local auxiliary basis functions on task:     41    80
  | Number of local auxiliary basis functions on task:     42    80
  | Number of local auxiliary basis functions on task:     43    80
  | Number of local auxiliary basis functions on task:     44    80
  | Number of local auxiliary basis functions on task:     45    80
  | Number of local auxiliary basis functions on task:     46    80
  | Number of local auxiliary basis functions on task:     47    80
  | Number of local auxiliary basis functions on task:     48    80
  | Number of local auxiliary basis functions on task:     49    80
  | Number of local auxiliary basis functions on task:     50    80
  | Number of local auxiliary basis functions on task:     51    80
  | Number of local auxiliary basis functions on task:     52    80
  | Number of local auxiliary basis functions on task:     53    80
  | Number of local auxiliary basis functions on task:     54    80
  | Number of local auxiliary basis functions on task:     55    80
  | Number of local auxiliary basis functions on task:     56    80
  | Number of local auxiliary basis functions on task:     57    80
  | Number of local auxiliary basis functions on task:     58    80
  | Number of local auxiliary basis functions on task:     59    80
  | Number of local auxiliary basis functions on task:     60    80
  | Number of local auxiliary basis functions on task:     61    80
  | Number of local auxiliary basis functions on task:     62    80
  | Number of local auxiliary basis functions on task:     63    80
  | 2D aux task distribution:      8 X      8
  | 2D block size (nb_aux_2d):     64
  Minimal free memory per node after shrink_svd_auxil [GB]:    222.00
  Minimal free memory per node after allocate_basis_pairs [GB]:    222.00
 
  Basis pair condensation :    246753  -->     219932
  | Tensor "coeff3fn" needs     28 MiB per node.
  |   It stores   1.27E+08 numbers. Per node: min:  8.15E+05; avg:  1.99E+06; max:  3.65E+06
  |   It stores   7.68E+02 blocks.  Per node: min:  9.00E+00; avg:  1.20E+01; max:  2.00E+01

  The resident memory for O3fn + V2fn is      32 MiB x   64 procs =       1.999 GiB
  | Part O3fn (temporarily alloced  2x) is     28 MiB x   64 procs =       1.741 GiB
  | Part V2fn (temporarily alloced ~3x) is      4 MiB x   64 procs =       0.258 GiB
  | Original full ovlp_3fn would have been    161 MiB x   64 procs =      10.068 GiB

  Integrating the Coulomb interaction matrix for auxiliary basis functions (by atoms)

  SBT integration errors (all should be 'small'):
  large logFT aliasing -> increase N/lnrange
  large SBT aliasing -> decrease lnk0 & increase lnk0+lnrange
  large SBT ringing -> decrease lnr0 & increase lnr0+lnrange
  |            El't  L: logFT-al.   small-k   large-k   small-r   large-r
  Atomic logSBT for 2-center Coulomb matrix    :  max(cpu_time)    wall_clock(cpu1)
  | Multiplication with kernel                  :        0.061 s           0.071 s
  | Main matrix multiplication                  :        0.875 s           0.762 s
  | Analytic angular integration                :        0.730 s           0.584 s
  | Kernel construction                         :        0.084 s           0.051 s
  | Overall 2-center overlap time               :        3.122 s           2.560 s


  Get 3-center expansion coefficients

  | Storage requirements for basis-basbas products (processor-local):
  |   Species C: n_prodsfn:  1141; storage:       35.66 MiB.
  |   Species O: n_prodsfn:  1094; storage:       34.19 MiB.
  |   Species H: n_prodsfn:   243; storage:        7.59 MiB.

  Preparing TB like auxiliary 2-center Coulomb matrix
  SBT integration errors (all should be 'small'):
  large logFT aliasing -> increase N/lnrange
  large SBT aliasing -> decrease lnk0 & increase lnk0+lnrange
  large SBT ringing -> decrease lnr0 & increase lnr0+lnrange
  |            El't  L: logFT-al.   small-k   large-k   small-r   large-r
  | Need to store 20585 splines of   220 points taking      35704 KiB.
  | Spline reduction from  4096 to   220 points by (cutting and)     1 x coarsening gives error:  0.00E+00
  get_coeff3fn_ten: Temporary array needs    129 MiB buffer space on CPU 0.
  Atomic logSBT for LVL-triples                :  max(cpu_time)    wall_clock(cpu1)
  | Multiplication with kernel                  :        0.008 s           0.005 s
  | Main matrix multiplication                  :        0.743 s           0.389 s
  | Analytic angular integration                :        0.022 s           0.015 s
  | Kernel construction                         :        0.007 s           0.004 s
  | Overall 2-center overlap time               :        0.852 s           0.446 s
  | 3-center preparation multiplications        :        0.080 s           0.077 s
  | 3-center preparation SBTs                   :        1.953 s           1.911 s
  | 3-center combinations                       :        1.013 s           0.574 s
  | Overal 3-center time                        :        2.849 s           2.570 s
  | LVL initialization                          :        0.119 s           0.120 s
  | Whole LVL-triples                           :        0.119 s           0.120 s

  Atomic logSBT for 2-center Coulomb matrix    :  max(cpu_time)    wall_clock(cpu1)
  | TB initialization                           :        0.244 s           0.244 s
  | TB usage                                    :        0.005 s           0.007 s

  Redistribute 3-center expansion coefficients

  | Redistributing coeff3fn to final_coeff3fn according to 3fn-1D-blocking.

  LVL product basis initialization             :  max(cpu_time)    wall_clock(cpu1)
  | 3-center integration                        :        4.879 s           4.879 s
  | 3-center distribution                       :        0.503 s           0.503 s
  | 2-center integration                        :        3.253 s           3.253 s
  | 2-center distribution                       :        0.000 s           0.000 s

  End of correlation preparation               :  max(cpu_time)    wall_clock(cpu1)
  | Product basis setup: Total time             :        8.869 s           8.871 s
  | Product basis: | 2-center integrations      :        3.253 s           3.253 s
  | Product basis: | LVL 3-center & coefficient :        5.381 s           5.382 s

--------------------------------------------
          RPA total energy calculation starts ...

  The ovlp_3KS matrix takes another     19 MiB x     64 procs =       1.182 GiB.

  Calculating RI-LVL ovlp_3KS
  | Using bunches of    11 states for ovlp_3KS construction.
  | Need      60 MiB per proc for ovlp_3KS construction buffers.
  
  Diagonalizing the Coulomb matrix and checking for singularities with ScaLapack .
 
  Difference of Coulomb matrix to its transposed:  4.9960E-16
  Eigenvalues of the Coulomb matrix range from    1.9227E+01 to    5.3503E-11.
  Using     5352   eigenvalues out of rank     5632   Coulomb matrix (auxiliary basis).
  Still using eigenvalue     1.0052E-05 while cutting     9.8780E-06 in Coulomb matrix.
 
  | Maximum charge error:  8.96E-02

  ovlp_3KS timings:                            :  max(cpu_time)    wall_clock(cpu1)
  | Time for V^0.5                              :        1.951 s           1.953 s
  | Time for fnfnbb -> fnKSbb                   :        0.090 s           0.090 s
  | Time for fnKSbb -> KSKSbb                   :        0.199 s           0.200 s
  | Time for KSKSbb -> KSKSon                   :        3.442 s           3.442 s
  | Time for synchronization                    :        1.803 s           1.804 s

  Initialising transformed Gauss-Legendre time and frequency grids
  Number of frequency points for self energy.....: 50
  Number of frequency points....................: 50
 
  Starts to calculate the exchange energy ...
 
  Integrating the xc potential matrix  for basis functions ...

  Starts to calculate the single excitation correction ...
 
  | Single excitation contribution to the correlation energy:  -0.12520585 Ha   -3.40702448 eV
  | Renormalized single excitation contribution (diag) to the correlation energy:  -0.08381108 Ha   -2.28061553  eV
 

  Starts to calculate the renormalized single excitation (full) correction ...
 
  | Renormalized single excitation contribution (full) to the correlation energy:  -2.11249772  eV
 
 
 ----------------------------------------------------------------------
  Start to calculate the RPA correlation energy  ... 
  HOMO and first non-fully-occupied orbitals:   24   25
 
 | i_freq    1            0.000284
 | i_freq    2            0.001496
 | i_freq    3            0.003688
 | i_freq    4            0.006877
 | i_freq    5            0.011088
 | i_freq    6            0.016354
 | i_freq    7            0.022718
 | i_freq    8            0.030232
 | i_freq    9            0.038959
 | i_freq   10            0.048973
 | i_freq   11            0.060364
 | i_freq   12            0.073232
 | i_freq   13            0.087699
 | i_freq   14            0.103902
 | i_freq   15            0.122005
 | i_freq   16            0.142195
 | i_freq   17            0.164691
 | i_freq   18            0.189747
 | i_freq   19            0.217662
 | i_freq   20            0.248783
 | i_freq   21            0.283522
 | i_freq   22            0.322364
 | i_freq   23            0.365883
 | i_freq   24            0.414767
 | i_freq   25            0.469840
 | i_freq   26            0.532096
 | i_freq   27            0.602748
 | i_freq   28            0.683279
 | i_freq   29            0.775522
 | i_freq   30            0.881765
 | i_freq   31            1.004891
 | i_freq   32            1.148572
 | i_freq   33            1.317542
 | i_freq   34            1.517993
 | i_freq   35            1.758143
 | i_freq   36            2.049089
 | i_freq   37            2.406102
 | i_freq   38            2.850673
 | i_freq   39            3.413807
 | i_freq   40            4.141574
 | i_freq   41            5.104818
 | i_freq   42            6.417053
 | i_freq   43            8.269467
 | i_freq   44           11.004641
 | i_freq   45           15.286969
 | i_freq   46           22.547292
 | i_freq   47           36.351938
 | i_freq   48           67.778420
 | i_freq   49          167.059463
 | i_freq   50          881.648817
 
 ------------------------------------------------------------------------------
    RPA correlation energy :          -2.11656275  Ha,       -57.59460277  eV
 
 --------------------------------------------------------------------
    Exact exchange energy             :          -44.42800555 Ha,       -1208.94754171 eV
    DFT/HF exchange energy            :          -40.50859153 Ha,       -1102.29485963 eV
 
    DFT/HF total energy               :         -397.19193127 Ha,      -10808.14236207 eV
    Exchange-only total energy        :         -395.40954143 Ha,      -10759.64106671 eV
    RPA total energy                  :         -397.52610417 Ha,      -10817.23566948 eV
 
    RPA+SE total energy               :         -397.65131002 Ha,      -10820.64269396 eV
    RPA+rSE (diag) total energy       :         -397.60991525 Ha,      -10819.51628500 eV
    RPA+rSE total energy              :         -397.60373704 Ha,      -10819.34816720 eV
 
    RPA+ total energy                 :         -396.59345282 Ha,      -10791.85693492 eV
 
 ----------------------------------------------------------------------------
 

------------------------------------------------------------------------------
  Final output of selected total energy values:

  The following output summarizes some interesting total energy values
  at the end of a run (AFTER all relaxation, molecular dynamics, etc.).

  | Total energy of the DFT / Hartree-Fock s.c.f. calculation      :         -10808.142362067 eV
  | Final zero-broadening corrected energy (caution - metals only) :         -10808.142362067 eV
  | Total energy after the post-s.c.f. correlation calculation     :         -10817.235669479 eV
  | For reference only, the value of 1 Hartree used in FHI-aims is :             27.211384500 eV

  Before relying on these values, please be sure to understand exactly which
  total energy value is referred to by a given number. Different objects may
  all carry the same name 'total energy'. Definitions:

  Total energy of the DFT / Hartree-Fock s.c.f. calculation:
  | Note that this energy does not include ANY quantities calculated after the
  | s.c.f. cycle, in particular not ANY RPA, MP2, etc. many-body perturbation terms.

  Final zero-broadening corrected energy:
  | For metallic systems only, a broadening of the occupation numbers at the Fermi
  | level can be extrapolated back to zero broadening by an electron-gas inspired
  | formula. For all systems that are not real metals, this value can be
  | meaningless and should be avoided.

  Total energy of the post-s.c.f. correlation calculation        :
  | Resolution of identity used for the 2-electron Coulomb operator:          RI_LVL_fast
  | The actual meaning of this energy depends on the setting for the 'total_energy_method'
  | keyword (MP2, RPA, rPT2, etc). If not sure, compare to the results listed above.

------------------------------------------------------------------------------
  Methods described in the following list of references were used in this FHI-aims run.
  If you publish the results, please make sure to cite these reference if they apply.
  FHI-aims is an academic code, and for our developers (often, Ph.D. students
  and postdocs), scientific credit in the community is essential.
  Thank you for helping us!

  For any use of FHI-aims, please cite:

    Volker Blum, Ralf Gehrke, Felix Hanke, Paula Havu, Ville Havu,
    Xinguo Ren, Karsten Reuter, and Matthias Scheffler
    'Ab initio molecular simulations with numeric atom-centered orbitals'
    Computer Physics Communications 180, 2175-2196 (2009)
    http://doi.org/10.1016/j.cpc.2009.06.022


  For Hartree-Fock, hybrid functionals, or many-body perturbation theory used in your run, please cite:

    Xinguo Ren, Patrick Rinke, Volker Blum, Juergen Wieferink, Alex Tkatchenko,
    Andrea Sanfilippo, Karsten Reuter, and Matthias Scheffler,
    'Resolution-of-identity approach to Hartree-Fock, hybrid density functionals,
    RPA, MP2, and GW with numeric atom-centered orbital basis functions'
    New Journal of Physics 14, 053020 (2012).
    http://doi.org/10.1088/1367-2630/14/5/053020


  The ELSI infrastructure was used in your run to solve the Kohn-Sham electronic structure.
  Please check out https://wordpress.elsi-interchange.org to learn more.
  If scalability is important for your project, please acknowledge ELSI by citing:

    V. W-z. Yu, F. Corsetti, A. Garcia, W. P. Huhn, M. Jacquelin, W. Jia,
    B. Lange, L. Lin, J. Lu, W. Mi, A. Seifitokaldani, A. Vazquez-Mayagoitia,
    C. Yang, H. Yang, and V. Blum
    'ELSI: A unified software interface for Kohn-Sham electronic structure solvers'
    Computer Physics Communications 222, 267-285 (2018).
    http://doi.org/10.1016/j.cpc.2017.09.007


  For the real-space grid partitioning and parallelization used in this calculation, please cite:

    Ville Havu, Volker Blum, Paula Havu, and Matthias Scheffler,
    'Efficient O(N) integration for all-electron electronic structure calculation'
    'using numerically tabulated basis functions'
    Journal of Computational Physics 228, 8367-8379 (2009).
    http://doi.org/10.1016/j.jcp.2009.08.008


  The high-level electronic structure method used in your calculation
  employed our efficient localized resolution of identity for the Coulomb operator.
  Some calculations, especially large-scale hybrid density functional theory,
  are only possible thanks to this development. For this feature, please cite:

    Arvid Ihrig, Juergen Wieferink, Igor Ying Zhang, Matti Ropo, Xinguo Ren,
    Patrick Rinke, Matthias Scheffler, and Volker Blum,
    'Accurate localized resolution of identity approach for linear-scaling
    hybrid density functionals and for many-body perturbation theory'
    New Journal of Physics 117, 093020 (2015).
    http://doi.org/10.1088/1367-2630/17/9/093020

  Of course, there are many other important community references, e.g., those cited in the
  above references. Our list is limited to references that describe implementations in the
  FHI-aims code. The reason is purely practical (length of this list) - please credit others as well.
------------------------------------------------------------
Warnings summary:

At least    2 warnings were raised during execution.

------------------------------------------------------------
          Leaving FHI-aims.
          Date     :  20251111, Time     :  180649.768

          Computational steps:
          | Number of self-consistency cycles          :            4
          | Number of SCF (re)initializations          :            1

          Detailed time accounting                     :  max(cpu_time)    wall_clock(cpu1)
          | Total time                                  :       55.870 s          55.981 s
          | Preparation time                            :        0.152 s           0.152 s
          | Boundary condition initalization            :        0.007 s           0.007 s
          | Grid partitioning                           :        0.206 s           0.205 s
          | Preloading free-atom quantities on grid     :        0.061 s           0.061 s
          | Free-atom superposition energy              :        0.004 s           0.005 s
          | Total time for integrations                 :        1.068 s           1.068 s
          | Product basis setup: Total time             :        0.000 s           0.000 s
          | Product basis: | 2-center integrations     :(       3.253 s)  (       3.253 s)
          | Product basis: | LVL 3-center & coefficient:(       5.381 s)  (       5.382 s)
          | Transforming ovlp_3fn to ovlp_3KS           :        7.515 s           7.517 s
          | Total time for evaluating polarisability    :       25.713 s          25.417 s
          | Total time for RPA corr. energy             :        5.998 s           5.997 s
          | Total time for solution of K.-S. equations  :        1.493 s           1.492 s
          | Total time for density update               :        1.716 s           1.716 s
          | Total time for mixing                       :        0.049 s           0.025 s
          | Total time for Hartree multipole update     :        0.014 s           0.016 s
          | Total time for Hartree multipole sum        :        0.235 s           0.235 s
          | Total time for total energy evaluation      :        0.000 s           0.001 s
          | Total time for scaled ZORA corrections      :        0.000 s           0.000 s
          | Total time for Mulliken analysis            :        0.000 s           0.000 s

          Partial memory accounting:
          | Residual value for overall tracked memory usage across tasks:     0.000000 MB (should be 0.000000 MB)
          | Peak values for overall tracked memory usage:
          |   Minimum:       26.575 MB (on task 42 after allocating wave)
          |   Maximum:       28.169 MB (on task 26 after allocating wave)
          |   Average:       27.286 MB
          | Largest tracked array allocation:
          |   Minimum:        3.760 MB (KS_eigenvector on task  0)
          |   Maximum:        3.760 MB (KS_eigenvector on task  0)
          |   Average:        3.760 MB
          Note:  These values currently only include a subset of arrays which are explicitly tracked.
          The "true" memory usage will be greater.

          Have a nice day.
------------------------------------------------------------
