------------------------------------------------------------
          Invoking FHI-aims ...

          When using FHI-aims, please cite the following reference:

            Volker Blum, Ralf Gehrke, Felix Hanke, Paula Havu,
            Ville Havu, Xinguo Ren, Karsten Reuter, and Matthias Scheffler,
            'Ab Initio Molecular Simulations with Numeric Atom-Centered Orbitals',
            Computer Physics Communications 180, 2175-2196 (2009)

          In addition, many other developments in FHI-aims are likely important for
          your particular application. If so, please cite them. A partial list of references
          is written at the end of this file. Thank you for giving credit to the authors
          of these developments.

          For general information about FHI-aims please find us at

            https://fhi-aims.org

          Online tutorials can be found at

            https://fhi-aims-club.gitlab.io/tutorials/tutorials-overview/

          For any questions about FHI-aims, please visit our slack channel at

            https://fhi-aims.slack.com

          and our main development and support site at

            https://aims-git.rz-berlin.mpg.de .

          The latter site, in particular, has a wiki to collect information, as well
          as an issue tracker to log discussions, suggest improvements, and report issues
          or bugs. https://aims-git.rz-berlin.mpg.de is also the main development site
          of the project and all new and updated code versions can be obtained there.
          Please send an email to aims-coordinators@fhi-berlin.mpg.de and we will add
          you to these sites. They are for you and everyone is welcome there.

------------------------------------------------------------



  Date     :  20250627, Time     :  165929.520
  Time zero on CPU 1             :   0.613674530000000E+02  s.
  Internal wall clock time zero  :           520275569.520  s.

  FHI-aims created a unique identifier for this run for later identification
  aims_uuid : B14AC11A-56A0-44E2-AFBF-9FEFE6A2954F

  Build configuration of the current instance of FHI-aims
  -------------------------------------------------------
  FHI-aims version      : 250403
  Commit number         : 316072d87
  CMake host system     : Linux-5.14.21-150400.24.46_12.0.70-cray_shasta_c
  CMake version         : 3.20.4
  Fortran compiler      : /opt/cray/pe/craype/2.7.19/bin/ftn (GNU) version 11.2.0
  Fortran compiler flags: -O2 -fPIC -fallow-argument-mismatch -ffree-line-length-none
  C compiler            : /opt/cray/pe/craype/2.7.19/bin/cc (GNU) version 11.2.0
  C compiler flags      : -O2
  C++ compiler          : /opt/cray/pe/gcc/11.2.0/bin/c++ (GNU) version 11.2.0
  C++ compiler flags    : -O2
  HIP compiler          :
  HIP compiler flags    :
  HIP GPU arch          :
  Using MPI
  Using ScaLAPACK
  Using LibXC
  Using i-PI
  Using RLSY
  Linking against:

  Using      512 parallel tasks.
  Task        0 on host nid001007 reporting.
  Task        1 on host nid001007 reporting.
  Task        2 on host nid001007 reporting.
  Task        3 on host nid001007 reporting.
  Task        4 on host nid001007 reporting.
  Task        5 on host nid001007 reporting.
  Task        6 on host nid001007 reporting.
  Task        7 on host nid001007 reporting.
  Task        8 on host nid001007 reporting.
  Task        9 on host nid001007 reporting.
  Task       10 on host nid001007 reporting.
  Task       11 on host nid001007 reporting.
  Task       12 on host nid001007 reporting.
  Task       13 on host nid001007 reporting.
  Task       14 on host nid001007 reporting.
  Task       15 on host nid001007 reporting.
  Task       16 on host nid001007 reporting.
  Task       17 on host nid001007 reporting.
  Task       18 on host nid001007 reporting.
  Task       19 on host nid001007 reporting.
  Task       20 on host nid001007 reporting.
  Task       21 on host nid001007 reporting.
  Task       22 on host nid001007 reporting.
  Task       23 on host nid001007 reporting.
  Task       24 on host nid001007 reporting.
  Task       25 on host nid001007 reporting.
  Task       26 on host nid001007 reporting.
  Task       27 on host nid001007 reporting.
  Task       28 on host nid001007 reporting.
  Task       29 on host nid001007 reporting.
  Task       30 on host nid001007 reporting.
  Task       31 on host nid001007 reporting.
  Task       32 on host nid001007 reporting.
  Task       33 on host nid001007 reporting.
  Task       34 on host nid001007 reporting.
  Task       35 on host nid001007 reporting.
  Task       36 on host nid001007 reporting.
  Task       37 on host nid001007 reporting.
  Task       38 on host nid001007 reporting.
  Task       39 on host nid001007 reporting.
  Task       40 on host nid001007 reporting.
  Task       41 on host nid001007 reporting.
  Task       42 on host nid001007 reporting.
  Task       43 on host nid001007 reporting.
  Task       44 on host nid001007 reporting.
  Task       45 on host nid001007 reporting.
  Task       46 on host nid001007 reporting.
  Task       47 on host nid001007 reporting.
  Task       48 on host nid001007 reporting.
  Task       49 on host nid001007 reporting.
  Task       50 on host nid001007 reporting.
  Task       51 on host nid001007 reporting.
  Task       52 on host nid001007 reporting.
  Task       53 on host nid001007 reporting.
  Task       54 on host nid001007 reporting.
  Task       55 on host nid001007 reporting.
  Task       56 on host nid001007 reporting.
  Task       57 on host nid001007 reporting.
  Task       58 on host nid001007 reporting.
  Task       59 on host nid001007 reporting.
  Task       60 on host nid001007 reporting.
  Task       61 on host nid001007 reporting.
  Task       62 on host nid001007 reporting.
  Task       63 on host nid001007 reporting.
  Task       64 on host nid001007 reporting.
  Task       65 on host nid001007 reporting.
  Task       66 on host nid001007 reporting.
  Task       67 on host nid001007 reporting.
  Task       68 on host nid001007 reporting.
  Task       69 on host nid001007 reporting.
  Task       70 on host nid001007 reporting.
  Task       71 on host nid001007 reporting.
  Task       72 on host nid001007 reporting.
  Task       73 on host nid001007 reporting.
  Task       74 on host nid001007 reporting.
  Task       75 on host nid001007 reporting.
  Task       76 on host nid001007 reporting.
  Task       77 on host nid001007 reporting.
  Task       78 on host nid001007 reporting.
  Task       79 on host nid001007 reporting.
  Task       80 on host nid001007 reporting.
  Task       81 on host nid001007 reporting.
  Task       82 on host nid001007 reporting.
  Task       83 on host nid001007 reporting.
  Task       84 on host nid001007 reporting.
  Task       85 on host nid001007 reporting.
  Task       86 on host nid001007 reporting.
  Task       87 on host nid001007 reporting.
  Task       88 on host nid001007 reporting.
  Task       89 on host nid001007 reporting.
  Task       90 on host nid001007 reporting.
  Task       91 on host nid001007 reporting.
  Task       92 on host nid001007 reporting.
  Task       93 on host nid001007 reporting.
  Task       94 on host nid001007 reporting.
  Task       95 on host nid001007 reporting.
  Task       96 on host nid001007 reporting.
  Task       97 on host nid001007 reporting.
  Task       98 on host nid001007 reporting.
  Task       99 on host nid001007 reporting.
  Task      100 on host nid001007 reporting.
  Task      101 on host nid001007 reporting.
  Task      102 on host nid001007 reporting.
  Task      103 on host nid001007 reporting.
  Task      104 on host nid001007 reporting.
  Task      105 on host nid001007 reporting.
  Task      106 on host nid001007 reporting.
  Task      107 on host nid001007 reporting.
  Task      108 on host nid001007 reporting.
  Task      109 on host nid001007 reporting.
  Task      110 on host nid001007 reporting.
  Task      111 on host nid001007 reporting.
  Task      112 on host nid001007 reporting.
  Task      113 on host nid001007 reporting.
  Task      114 on host nid001007 reporting.
  Task      115 on host nid001007 reporting.
  Task      116 on host nid001007 reporting.
  Task      117 on host nid001007 reporting.
  Task      118 on host nid001007 reporting.
  Task      119 on host nid001007 reporting.
  Task      120 on host nid001007 reporting.
  Task      121 on host nid001007 reporting.
  Task      122 on host nid001007 reporting.
  Task      123 on host nid001007 reporting.
  Task      124 on host nid001007 reporting.
  Task      125 on host nid001007 reporting.
  Task      126 on host nid001007 reporting.
  Task      127 on host nid001007 reporting.
  Task      128 on host nid001010 reporting.
  Task      129 on host nid001010 reporting.
  Task      130 on host nid001010 reporting.
  Task      131 on host nid001010 reporting.
  Task      132 on host nid001010 reporting.
  Task      133 on host nid001010 reporting.
  Task      134 on host nid001010 reporting.
  Task      135 on host nid001010 reporting.
  Task      136 on host nid001010 reporting.
  Task      137 on host nid001010 reporting.
  Task      138 on host nid001010 reporting.
  Task      139 on host nid001010 reporting.
  Task      140 on host nid001010 reporting.
  Task      141 on host nid001010 reporting.
  Task      142 on host nid001010 reporting.
  Task      143 on host nid001010 reporting.
  Task      144 on host nid001010 reporting.
  Task      145 on host nid001010 reporting.
  Task      146 on host nid001010 reporting.
  Task      147 on host nid001010 reporting.
  Task      148 on host nid001010 reporting.
  Task      149 on host nid001010 reporting.
  Task      150 on host nid001010 reporting.
  Task      151 on host nid001010 reporting.
  Task      152 on host nid001010 reporting.
  Task      153 on host nid001010 reporting.
  Task      154 on host nid001010 reporting.
  Task      155 on host nid001010 reporting.
  Task      156 on host nid001010 reporting.
  Task      157 on host nid001010 reporting.
  Task      158 on host nid001010 reporting.
  Task      159 on host nid001010 reporting.
  Task      160 on host nid001010 reporting.
  Task      161 on host nid001010 reporting.
  Task      162 on host nid001010 reporting.
  Task      163 on host nid001010 reporting.
  Task      164 on host nid001010 reporting.
  Task      165 on host nid001010 reporting.
  Task      166 on host nid001010 reporting.
  Task      167 on host nid001010 reporting.
  Task      168 on host nid001010 reporting.
  Task      169 on host nid001010 reporting.
  Task      170 on host nid001010 reporting.
  Task      171 on host nid001010 reporting.
  Task      172 on host nid001010 reporting.
  Task      173 on host nid001010 reporting.
  Task      174 on host nid001010 reporting.
  Task      175 on host nid001010 reporting.
  Task      176 on host nid001010 reporting.
  Task      177 on host nid001010 reporting.
  Task      178 on host nid001010 reporting.
  Task      179 on host nid001010 reporting.
  Task      180 on host nid001010 reporting.
  Task      181 on host nid001010 reporting.
  Task      182 on host nid001010 reporting.
  Task      183 on host nid001010 reporting.
  Task      184 on host nid001010 reporting.
  Task      185 on host nid001010 reporting.
  Task      186 on host nid001010 reporting.
  Task      187 on host nid001010 reporting.
  Task      188 on host nid001010 reporting.
  Task      189 on host nid001010 reporting.
  Task      190 on host nid001010 reporting.
  Task      191 on host nid001010 reporting.
  Task      192 on host nid001010 reporting.
  Task      193 on host nid001010 reporting.
  Task      194 on host nid001010 reporting.
  Task      195 on host nid001010 reporting.
  Task      196 on host nid001010 reporting.
  Task      197 on host nid001010 reporting.
  Task      198 on host nid001010 reporting.
  Task      199 on host nid001010 reporting.
  Task      200 on host nid001010 reporting.
  Task      201 on host nid001010 reporting.
  Task      202 on host nid001010 reporting.
  Task      203 on host nid001010 reporting.
  Task      204 on host nid001010 reporting.
  Task      205 on host nid001010 reporting.
  Task      206 on host nid001010 reporting.
  Task      207 on host nid001010 reporting.
  Task      208 on host nid001010 reporting.
  Task      209 on host nid001010 reporting.
  Task      210 on host nid001010 reporting.
  Task      211 on host nid001010 reporting.
  Task      212 on host nid001010 reporting.
  Task      213 on host nid001010 reporting.
  Task      214 on host nid001010 reporting.
  Task      215 on host nid001010 reporting.
  Task      216 on host nid001010 reporting.
  Task      217 on host nid001010 reporting.
  Task      218 on host nid001010 reporting.
  Task      219 on host nid001010 reporting.
  Task      220 on host nid001010 reporting.
  Task      221 on host nid001010 reporting.
  Task      222 on host nid001010 reporting.
  Task      223 on host nid001010 reporting.
  Task      224 on host nid001010 reporting.
  Task      225 on host nid001010 reporting.
  Task      226 on host nid001010 reporting.
  Task      227 on host nid001010 reporting.
  Task      228 on host nid001010 reporting.
  Task      229 on host nid001010 reporting.
  Task      230 on host nid001010 reporting.
  Task      231 on host nid001010 reporting.
  Task      232 on host nid001010 reporting.
  Task      233 on host nid001010 reporting.
  Task      234 on host nid001010 reporting.
  Task      235 on host nid001010 reporting.
  Task      236 on host nid001010 reporting.
  Task      237 on host nid001010 reporting.
  Task      238 on host nid001010 reporting.
  Task      239 on host nid001010 reporting.
  Task      240 on host nid001010 reporting.
  Task      241 on host nid001010 reporting.
  Task      242 on host nid001010 reporting.
  Task      243 on host nid001010 reporting.
  Task      244 on host nid001010 reporting.
  Task      245 on host nid001010 reporting.
  Task      246 on host nid001010 reporting.
  Task      247 on host nid001010 reporting.
  Task      248 on host nid001010 reporting.
  Task      249 on host nid001010 reporting.
  Task      250 on host nid001010 reporting.
  Task      251 on host nid001010 reporting.
  Task      252 on host nid001010 reporting.
  Task      253 on host nid001010 reporting.
  Task      254 on host nid001010 reporting.
  Task      255 on host nid001010 reporting.
  Task      256 on host nid001027 reporting.
  Task      257 on host nid001027 reporting.
  Task      258 on host nid001027 reporting.
  Task      259 on host nid001027 reporting.
  Task      260 on host nid001027 reporting.
  Task      261 on host nid001027 reporting.
  Task      262 on host nid001027 reporting.
  Task      263 on host nid001027 reporting.
  Task      264 on host nid001027 reporting.
  Task      265 on host nid001027 reporting.
  Task      266 on host nid001027 reporting.
  Task      267 on host nid001027 reporting.
  Task      268 on host nid001027 reporting.
  Task      269 on host nid001027 reporting.
  Task      270 on host nid001027 reporting.
  Task      271 on host nid001027 reporting.
  Task      272 on host nid001027 reporting.
  Task      273 on host nid001027 reporting.
  Task      274 on host nid001027 reporting.
  Task      275 on host nid001027 reporting.
  Task      276 on host nid001027 reporting.
  Task      277 on host nid001027 reporting.
  Task      278 on host nid001027 reporting.
  Task      279 on host nid001027 reporting.
  Task      280 on host nid001027 reporting.
  Task      281 on host nid001027 reporting.
  Task      282 on host nid001027 reporting.
  Task      283 on host nid001027 reporting.
  Task      284 on host nid001027 reporting.
  Task      285 on host nid001027 reporting.
  Task      286 on host nid001027 reporting.
  Task      287 on host nid001027 reporting.
  Task      288 on host nid001027 reporting.
  Task      289 on host nid001027 reporting.
  Task      290 on host nid001027 reporting.
  Task      291 on host nid001027 reporting.
  Task      292 on host nid001027 reporting.
  Task      293 on host nid001027 reporting.
  Task      294 on host nid001027 reporting.
  Task      295 on host nid001027 reporting.
  Task      296 on host nid001027 reporting.
  Task      297 on host nid001027 reporting.
  Task      298 on host nid001027 reporting.
  Task      299 on host nid001027 reporting.
  Task      300 on host nid001027 reporting.
  Task      301 on host nid001027 reporting.
  Task      302 on host nid001027 reporting.
  Task      303 on host nid001027 reporting.
  Task      304 on host nid001027 reporting.
  Task      305 on host nid001027 reporting.
  Task      306 on host nid001027 reporting.
  Task      307 on host nid001027 reporting.
  Task      308 on host nid001027 reporting.
  Task      309 on host nid001027 reporting.
  Task      310 on host nid001027 reporting.
  Task      311 on host nid001027 reporting.
  Task      312 on host nid001027 reporting.
  Task      313 on host nid001027 reporting.
  Task      314 on host nid001027 reporting.
  Task      315 on host nid001027 reporting.
  Task      316 on host nid001027 reporting.
  Task      317 on host nid001027 reporting.
  Task      318 on host nid001027 reporting.
  Task      319 on host nid001027 reporting.
  Task      320 on host nid001027 reporting.
  Task      321 on host nid001027 reporting.
  Task      322 on host nid001027 reporting.
  Task      323 on host nid001027 reporting.
  Task      324 on host nid001027 reporting.
  Task      325 on host nid001027 reporting.
  Task      326 on host nid001027 reporting.
  Task      327 on host nid001027 reporting.
  Task      328 on host nid001027 reporting.
  Task      329 on host nid001027 reporting.
  Task      330 on host nid001027 reporting.
  Task      331 on host nid001027 reporting.
  Task      332 on host nid001027 reporting.
  Task      333 on host nid001027 reporting.
  Task      334 on host nid001027 reporting.
  Task      335 on host nid001027 reporting.
  Task      336 on host nid001027 reporting.
  Task      337 on host nid001027 reporting.
  Task      338 on host nid001027 reporting.
  Task      339 on host nid001027 reporting.
  Task      340 on host nid001027 reporting.
  Task      341 on host nid001027 reporting.
  Task      342 on host nid001027 reporting.
  Task      343 on host nid001027 reporting.
  Task      344 on host nid001027 reporting.
  Task      345 on host nid001027 reporting.
  Task      346 on host nid001027 reporting.
  Task      347 on host nid001027 reporting.
  Task      348 on host nid001027 reporting.
  Task      349 on host nid001027 reporting.
  Task      350 on host nid001027 reporting.
  Task      351 on host nid001027 reporting.
  Task      352 on host nid001027 reporting.
  Task      353 on host nid001027 reporting.
  Task      354 on host nid001027 reporting.
  Task      355 on host nid001027 reporting.
  Task      356 on host nid001027 reporting.
  Task      357 on host nid001027 reporting.
  Task      358 on host nid001027 reporting.
  Task      359 on host nid001027 reporting.
  Task      360 on host nid001027 reporting.
  Task      361 on host nid001027 reporting.
  Task      362 on host nid001027 reporting.
  Task      363 on host nid001027 reporting.
  Task      364 on host nid001027 reporting.
  Task      365 on host nid001027 reporting.
  Task      366 on host nid001027 reporting.
  Task      367 on host nid001027 reporting.
  Task      368 on host nid001027 reporting.
  Task      369 on host nid001027 reporting.
  Task      370 on host nid001027 reporting.
  Task      371 on host nid001027 reporting.
  Task      372 on host nid001027 reporting.
  Task      373 on host nid001027 reporting.
  Task      374 on host nid001027 reporting.
  Task      375 on host nid001027 reporting.
  Task      376 on host nid001027 reporting.
  Task      377 on host nid001027 reporting.
  Task      378 on host nid001027 reporting.
  Task      379 on host nid001027 reporting.
  Task      380 on host nid001027 reporting.
  Task      381 on host nid001027 reporting.
  Task      382 on host nid001027 reporting.
  Task      383 on host nid001027 reporting.
  Task      384 on host nid001028 reporting.
  Task      385 on host nid001028 reporting.
  Task      386 on host nid001028 reporting.
  Task      387 on host nid001028 reporting.
  Task      388 on host nid001028 reporting.
  Task      389 on host nid001028 reporting.
  Task      390 on host nid001028 reporting.
  Task      391 on host nid001028 reporting.
  Task      392 on host nid001028 reporting.
  Task      393 on host nid001028 reporting.
  Task      394 on host nid001028 reporting.
  Task      395 on host nid001028 reporting.
  Task      396 on host nid001028 reporting.
  Task      397 on host nid001028 reporting.
  Task      398 on host nid001028 reporting.
  Task      399 on host nid001028 reporting.
  Task      400 on host nid001028 reporting.
  Task      401 on host nid001028 reporting.
  Task      402 on host nid001028 reporting.
  Task      403 on host nid001028 reporting.
  Task      404 on host nid001028 reporting.
  Task      405 on host nid001028 reporting.
  Task      406 on host nid001028 reporting.
  Task      407 on host nid001028 reporting.
  Task      408 on host nid001028 reporting.
  Task      409 on host nid001028 reporting.
  Task      410 on host nid001028 reporting.
  Task      411 on host nid001028 reporting.
  Task      412 on host nid001028 reporting.
  Task      413 on host nid001028 reporting.
  Task      414 on host nid001028 reporting.
  Task      415 on host nid001028 reporting.
  Task      416 on host nid001028 reporting.
  Task      417 on host nid001028 reporting.
  Task      418 on host nid001028 reporting.
  Task      419 on host nid001028 reporting.
  Task      420 on host nid001028 reporting.
  Task      421 on host nid001028 reporting.
  Task      422 on host nid001028 reporting.
  Task      423 on host nid001028 reporting.
  Task      424 on host nid001028 reporting.
  Task      425 on host nid001028 reporting.
  Task      426 on host nid001028 reporting.
  Task      427 on host nid001028 reporting.
  Task      428 on host nid001028 reporting.
  Task      429 on host nid001028 reporting.
  Task      430 on host nid001028 reporting.
  Task      431 on host nid001028 reporting.
  Task      432 on host nid001028 reporting.
  Task      433 on host nid001028 reporting.
  Task      434 on host nid001028 reporting.
  Task      435 on host nid001028 reporting.
  Task      436 on host nid001028 reporting.
  Task      437 on host nid001028 reporting.
  Task      438 on host nid001028 reporting.
  Task      439 on host nid001028 reporting.
  Task      440 on host nid001028 reporting.
  Task      441 on host nid001028 reporting.
  Task      442 on host nid001028 reporting.
  Task      443 on host nid001028 reporting.
  Task      444 on host nid001028 reporting.
  Task      445 on host nid001028 reporting.
  Task      446 on host nid001028 reporting.
  Task      447 on host nid001028 reporting.
  Task      448 on host nid001028 reporting.
  Task      449 on host nid001028 reporting.
  Task      450 on host nid001028 reporting.
  Task      451 on host nid001028 reporting.
  Task      452 on host nid001028 reporting.
  Task      453 on host nid001028 reporting.
  Task      454 on host nid001028 reporting.
  Task      455 on host nid001028 reporting.
  Task      456 on host nid001028 reporting.
  Task      457 on host nid001028 reporting.
  Task      458 on host nid001028 reporting.
  Task      459 on host nid001028 reporting.
  Task      460 on host nid001028 reporting.
  Task      461 on host nid001028 reporting.
  Task      462 on host nid001028 reporting.
  Task      463 on host nid001028 reporting.
  Task      464 on host nid001028 reporting.
  Task      465 on host nid001028 reporting.
  Task      466 on host nid001028 reporting.
  Task      467 on host nid001028 reporting.
  Task      468 on host nid001028 reporting.
  Task      469 on host nid001028 reporting.
  Task      470 on host nid001028 reporting.
  Task      471 on host nid001028 reporting.
  Task      472 on host nid001028 reporting.
  Task      473 on host nid001028 reporting.
  Task      474 on host nid001028 reporting.
  Task      475 on host nid001028 reporting.
  Task      476 on host nid001028 reporting.
  Task      477 on host nid001028 reporting.
  Task      478 on host nid001028 reporting.
  Task      479 on host nid001028 reporting.
  Task      480 on host nid001028 reporting.
  Task      481 on host nid001028 reporting.
  Task      482 on host nid001028 reporting.
  Task      483 on host nid001028 reporting.
  Task      484 on host nid001028 reporting.
  Task      485 on host nid001028 reporting.
  Task      486 on host nid001028 reporting.
  Task      487 on host nid001028 reporting.
  Task      488 on host nid001028 reporting.
  Task      489 on host nid001028 reporting.
  Task      490 on host nid001028 reporting.
  Task      491 on host nid001028 reporting.
  Task      492 on host nid001028 reporting.
  Task      493 on host nid001028 reporting.
  Task      494 on host nid001028 reporting.
  Task      495 on host nid001028 reporting.
  Task      496 on host nid001028 reporting.
  Task      497 on host nid001028 reporting.
  Task      498 on host nid001028 reporting.
  Task      499 on host nid001028 reporting.
  Task      500 on host nid001028 reporting.
  Task      501 on host nid001028 reporting.
  Task      502 on host nid001028 reporting.
  Task      503 on host nid001028 reporting.
  Task      504 on host nid001028 reporting.
  Task      505 on host nid001028 reporting.
  Task      506 on host nid001028 reporting.
  Task      507 on host nid001028 reporting.
  Task      508 on host nid001028 reporting.
  Task      509 on host nid001028 reporting.
  Task      510 on host nid001028 reporting.
  Task      511 on host nid001028 reporting.

  Obtaining array dimensions for all initial allocations:
  
  -----------------------------------------------------------------------
  Parsing control.in (first pass over file, find array dimensions only).
  The contents of control.in will be repeated verbatim below
  unless switched off by setting 'verbatim_writeout .false.' .
  in the first line of control.in .
  -----------------------------------------------------------------------
  
  #===============================================================================
  # Created using the Atomic Simulation Environment (ASE)
  
  # Fri Jun 27 16:59:29 2025
  
  #===============================================================================
  xc                                 PBE
  output_level                       full
  relativistic                       atomic_zora scalar
  occupation_type                    gaussian 0.01
  mixer                              pulay
  n_max_pulay                        10
  KS_method                          parallel
  RI_method                          LVL
  collect_eigenvectors               .true.
  density_update_method              density_matrix
  atomic_solver_xc                   PBE
  basis_threshold                    1e-05
  override_illconditioning           .true.
  override_initial_charge_check      .true.
  use_2d_corr                        .false.
  qm_embedding_mo_localise           .false.
  qm_embedding_calc                  2
  charge_mix_param                   0.0
  sc_iter_limit                      0
  charge                             15.000000000000131
  #===============================================================================
  
  ################################################################################
  #
  #  FHI-aims code project
  # Igor Ying Zhang and Xinguo Ren, Fritz Haber Institute Berlin, 2012
  #
  #  Suggested "NAO-VCC-5Z" defaults for O atom (to be pasted into control.in file)
  #
  #  Please cite:
  #
  #  Igor Ying Zhang, Xinguo Ren, Patrick Rinke, Volker Blum, and Matthias Scheffler,
  #  "Numeric atom-centered-orbital basis sets with valence-correlation consistency from H to Ar"
  #  New Journal of Physics 15, 123033 (2013).
  #  http://dx.doi.org/10.1088/1367-2630/15/12/123033
  #
  ################################################################################
    species        O
  #     set basis set reference for FHI-aims output
      cite_reference NAO-VCC-2013
  #     global species definitions
      nucleus             8
      mass                15.9994
  #
      l_hartree           6
  #
      cut_pot             4.0  2.0  1.0
      basis_dep_cutoff    0e-4
  #
      radial_base         36 7.0
      radial_multiplier   2
      angular_grids       specified
        division   0.1817   50
        division   0.3417  110
        division   0.4949  194
        division   0.6251  302
        division   0.8014  434
        division   0.8507  590
  #      division   0.8762  770
  #      division   0.9023  974
  #      division   1.2339 1202
  #      outer_grid 974
        outer_grid 770
  #      outer_grid  434
  ################################################################################
  #
  #  Definition of "minimal" basis
  #
  ################################################################################
  #     valence basis states
      valence      2  s   2.
      valence      2  p   4.
  #     ion occupancy
      ion_occ      2  s   1.
      ion_occ      2  p   3.
  ################################################################################
  
   basis_acc              1e-04
  #============================================
  # Optimization in      O for       NAO-VCC-5Z
  #============================================
  # (sp) correlation set
   hydro     1     s      2.09469909
   hydro     1     s      3.53618948
   hydro     1     s      5.96965744
   hydro     1     s     10.07774333
   hydro     2     p      2.20837049
   hydro     2     p      3.61767613
   hydro     2     p      5.92635187
   hydro     2     p      9.70834459
  # polarization set
   hydro     3     d      7.12202873
   hydro     3     d      9.46691758
   hydro     3     d     12.58384822
   hydro     3     d     16.72701115
   hydro     4     f     12.99915545
   hydro     4     f     15.67359110
   hydro     4     f     18.89826297
   hydro     5     g     21.03738814
   hydro     5     g     24.09299915
   hydro     6     h     30.60977870
  # (sp) enhanced minimal basis
   hydro     1     s     16.83050443
   hydro     1     s     24.69876230
   hydro     2     p     12.01245604
  ################################################################################
  #
  #  FHI-aims code project
  # Igor Ying Zhang and Xinguo Ren, Fritz Haber Institute Berlin, 2012
  #
  #  Suggested "NAO-VCC-5Z" defaults for C atom (to be pasted into control.in file)
  #
  #  Please cite:
  #
  #  Igor Ying Zhang, Xinguo Ren, Patrick Rinke, Volker Blum, and Matthias Scheffler,
  #  "Numeric atom-centered-orbital basis sets with valence-correlation consistency from H to Ar"
  #  New Journal of Physics 15, 123033 (2013).
  #  http://dx.doi.org/10.1088/1367-2630/15/12/123033
  #
  ################################################################################
    species        C
  #     set basis set reference for FHI-aims output
      cite_reference NAO-VCC-2013
  #     global species definitions
      nucleus             6
      mass                12.0107
  #
      l_hartree           6
  #
      cut_pot             4.0  2.0  1.0
      basis_dep_cutoff    0e-4
  #
      radial_base         34 7.0
      radial_multiplier   2
      angular_grids       specified
        division   0.2187   50
        division   0.4416  110
        division   0.6335  194
        division   0.7727  302
        division   0.8772  434
        division   0.9334  590
  #      division   0.9924  770
  #      division   1.0230  974
  #      division   1.5020 1202
  #      outer_grid  974
        outer_grid  770
  #      outer_grid  434
  ################################################################################
  #
  #  Definition of "minimal" basis
  #
  ################################################################################
  #     valence basis states
      valence      2  s   2.
      valence      2  p   2.
  #     ion occupancy
      ion_occ      2  s   1.
      ion_occ      2  p   1.
  ################################################################################
  
   basis_acc              1e-04
  #============================================
  # Optimization in      C for       NAO-VCC-5Z
  #============================================
  # (sp) correlation set
   hydro     1     s      1.62265497
   hydro     1     s      3.22740086
   hydro     1     s      6.41918123
   hydro     1     s     12.76751462
   hydro     2     p      2.41714682
   hydro     2     p      4.10436269
   hydro     2     p      6.96928833
   hydro     2     p     11.83398824
  # polarization set
   hydro     3     d      5.11061165
   hydro     3     d      6.86104896
   hydro     3     d      9.21102914
   hydro     3     d     12.36590183
   hydro     4     f     10.51851587
   hydro     4     f     11.50444114
   hydro     4     f     12.58277951
   hydro     5     g     16.24617922
   hydro     5     g     16.79172767
   hydro     6     h     22.55440019
  # (sp) enhanced minimal set
   hydro     1     s     15.61141940
   hydro     1     s     29.66159935
   hydro     2     p     10.71433476
  ################################################################################
  #
  #  FHI-aims code project
  # Igor Ying Zhang and Xinguo Ren, Fritz Haber Institute Berlin, 2012
  #
  #  Suggested "NAO-VCC-5Z" defaults for H atom (to be pasted into control.in file)
  #
  #  Please cite:
  #
  #  Igor Ying Zhang, Xinguo Ren, Patrick Rinke, Volker Blum, and Matthias Scheffler,
  #  "Numeric atom-centered-orbital basis sets with valence-correlation consistency from H to Ar"
  #  New Journal of Physics 15, 123033 (2013).
  #  http://dx.doi.org/10.1088/1367-2630/15/12/123033
  #
  ################################################################################
    species        H
  #     set basis set reference for FHI-aims output
      cite_reference NAO-VCC-2013
  #     global species definitions
      nucleus             1
      mass                1.00794
  #
      l_hartree           6
  #
      cut_pot             4.0  2.0  1.0
      basis_dep_cutoff    0e-4
  #
      radial_base         24 7.0
      radial_multiplier   2
      angular_grids       specified
        division   0.1930   50
        division   0.3175  110
        division   0.4293  194
        division   0.5066  302
        division   0.5626  434
        division   0.5922  590
  #      division   0.6227  974
  #      division   0.6868 1202
        outer_grid  770
  #      outer_grid  434
  ################################################################################
  #
  #  Definition of "minimal" basis
  #
  ################################################################################
  #     valence basis states
      valence      1  s   1.
  #     ion occupancy
      ion_occ      1  s   0.5
  ################################################################################
  
  
   basis_acc              1e-04
  #============================================
  # Optimization in      H for       NAO-VCC-5Z
  #============================================
  # (sp) correlation set
   hydro     1     s      1.11779553
   hydro     1     s      1.56046949
   hydro     1     s      2.17845300
   hydro     1     s      3.04117285
   hydro     2     p      2.80545446
   hydro     2     p      3.98653311
   hydro     2     p      5.66483842
   hydro     2     p      8.04969969
  # polarization set
   hydro     3     d      5.99962077
   hydro     3     d      7.92382663
   hydro     3     d     10.46516619
   hydro     4     f     10.68384218
   hydro     4     f     13.30715397
   hydro     5     g     16.73481614
  # (sp) enhanced minimal set
   hydro     1     s      4.24555056
  
  -----------------------------------------------------------------------
  Completed first pass over input file control.in .
  -----------------------------------------------------------------------
  
  
  -----------------------------------------------------------------------
  Parsing geometry.in (first pass over file, find array dimensions only).
  The contents of geometry.in will be repeated verbatim below
  unless switched off by setting 'verbatim_writeout .false.' .
  in the first line of geometry.in .
  -----------------------------------------------------------------------
  
  #===============================================================================
  # Created using the Atomic Simulation Environment (ASE)
  
  # Fri Jun 27 16:59:29 2025
  
  #=======================================================
  atom -3.3095935700000001 0.1374818300000000 -0.2916254600000000 O
  qm_embedding_region 1
  atom -2.0869815900000002 0.7345465799999999 0.1375672300000000 C
  qm_embedding_region 1
  atom -2.0070213799999999 1.7557175500000000 -0.2642381000000000 H
  qm_embedding_region 1
  atom -2.0532613700000000 0.7732952199999999 1.2375448300000000 H
  qm_embedding_region 1
  atom -4.0346273300000002 0.7528956400000000 -0.1044506000000000 H
  qm_embedding_region 1
  empty 0.4274306800000000 0.3853130700000000 0.1017113100000000 C
  qm_embedding_region 2
  empty -0.9290906200000000 -0.1107436200000000 -0.3794852500000000 C
  qm_embedding_region 2
  empty 2.9424447200000001 0.0142041100000000 0.0697441000000000 C
  qm_embedding_region 2
  empty 3.0423849100000000 -0.1690378100000000 1.1445334500000000 H
  qm_embedding_region 2
  empty 3.0952333200000002 1.0828938299999999 -0.1106814400000000 H
  qm_embedding_region 2
  empty 1.4208798700000000 -1.4988657100000000 -0.1658818400000000 H
  qm_embedding_region 2
  empty 1.5606098900000001 -0.4027670700000000 -1.5387122700000000 H
  qm_embedding_region 2
  empty 0.5553898800000000 1.4342043200000001 -0.2019027500000000 H
  qm_embedding_region 2
  empty 0.4376096000000000 0.3668700900000000 1.2008618000000000 H
  qm_embedding_region 2
  empty 3.7410855000000001 -0.5309657200000000 -0.4384496200000000 H
  qm_embedding_region 2
  empty 1.5852394700000001 -0.4505000300000000 -0.4430268300000000 C
  qm_embedding_region 2
  empty -1.0561402200000001 -1.1544117800000000 -0.0539204500000000 H
  qm_embedding_region 2
  empty -0.9414106200000000 -0.1151738400000000 -1.4799609899999999 H
  qm_embedding_region 2
  
  -----------------------------------------------------------------------
  Completed first pass over input file geometry.in .
  -----------------------------------------------------------------------
  

  Basic array size parameters:
  | Number of species                 :        3
  | Number of atoms                   :       18
  | Max. basis fn. angular momentum   :        5
  | Max. atomic/ionic basis occupied n:        2
  | Max. number of basis fn. types    :        2
  | Max. radial fns per species/type  :       21
  | Max. logarithmic grid size        :     1301
  | Max. radial integration grid size :       73
  | Max. angular integration grid size:      770
  | Max. angular grid division number :        8
  | Radial grid for Hartree potential :     1301
  | Number of spin channels           :        1

  Definition of standardized fundamental physical constants in this FHI-aims run:
  | Using the set of values used in FHI-aims up to 2024, which combines values from
  | different CODATA sets - see constants.f90.
  | Use the 'codata' keyword in control.in to change this selection.

  Memory overcommitment is allowed on your operating system.

------------------------------------------------------------
          Reading file control.in.
------------------------------------------------------------
  XC: Using PBE gradient-corrected functionals.
  Requested output level: full
  Scalar relativistic treatment of kinetic energy: on-site free-atom approximation to ZORA.
  Occupation type: Gaussian broadening, width =   0.100000E-01 eV.
  Using pulay charge density mixing.
  Pulay mixing - number of memorized iterations:   10
  Kohn-Sham electronic structure solved by the ELSI library.
  The 'LVL' version of RI (resolution of identity) technique is used.
  ** This is a localized expansion of all basis function products.
     Its intended use are Hartree-Fock and hybrid functionals.
     For RPA, MP2, GW, etc., LVL is not yet as accurate. In those cases, check carefully.
  Atomic Solver XC: Using user-defined functional for generating the minimal NAO basis functions.
  Note that only the following functionals are available: kli, pz-lda, pw-lda, vwn, vwn-gauss, pw91_gga, pbe, rpbe, revpbe, pbeint, blyp.
  Threshold for basis singularities:  0.1000E-04
  override_illconditioning: Explicitly overriding any built-in checks for an ill-conditioned overlap matrix.
** WARNING:
  ***  If you use this flag, you should really know what you are doing.
** END OF WARNING
** WARNING:
  *** DO NOT keep this flag set by default in all your control.in files.
** END OF WARNING
  Old 1D distribution for correlation code.
  Charge density mixing - mixing parameter:     0.0000
 * Warning: The chosen 'charge_mix_param' value is not between zero or one.
 * The value found in control.in will likely lead to no s.c.f. convergence: 
 charge_mix_param                   0.0                                                                                                                                                                                                                    
 * Please check. 
  Maximum number of s.-c. iterations  :     0
  Charged system requested: Charge =   0.150000E+02.

  Reading configuration options for species O                   .
  | Found nuclear charge :   8.0000
  | Found atomic mass :    15.999400000000000      amu
  | Found l_max for Hartree potential  :   6
  | Found cutoff potl. onset [A], width [A], scale factor :    4.00000    2.00000    1.00000
  | Threshold for basis-dependent cutoff potential is   0.000000E+00
  | Found data for basic radial integration grid :    36 points, outermost radius =    7.000 A
  | Found multiplier for basic radial grid :   2
  | Found angular grid specification: user-specified.
  | Specified grid contains     7 separate shells.
  | Check grid settings after all constraints further below.
  | Found free-atom valence shell :  2 s   2.000
  | Found free-atom valence shell :  2 p   4.000
  | No ionic wave fns used. Skipping ion_occ.
  | No ionic wave fns used. Skipping ion_occ.
  | Found basis singularity cutoff : 0.1000E-03
  | Found hydrogenic basis function :  1 s   2.095
  | Found hydrogenic basis function :  1 s   3.536
  | Found hydrogenic basis function :  1 s   5.970
  | Found hydrogenic basis function :  1 s  10.078
  | Found hydrogenic basis function :  2 p   2.208
  | Found hydrogenic basis function :  2 p   3.618
  | Found hydrogenic basis function :  2 p   5.926
  | Found hydrogenic basis function :  2 p   9.708
  | Found hydrogenic basis function :  3 d   7.122
  | Found hydrogenic basis function :  3 d   9.467
  | Found hydrogenic basis function :  3 d  12.584
  | Found hydrogenic basis function :  3 d  16.727
  | Found hydrogenic basis function :  4 f  12.999
  | Found hydrogenic basis function :  4 f  15.674
  | Found hydrogenic basis function :  4 f  18.898
  | Found hydrogenic basis function :  5 g  21.037
  | Found hydrogenic basis function :  5 g  24.093
  | Found hydrogenic basis function :  6 h  30.610
  | Found hydrogenic basis function :  1 s  16.831
  | Found hydrogenic basis function :  1 s  24.699
  | Found hydrogenic basis function :  2 p  12.012
 | Encountered keyword species, ending the description of species O                   .
  Species O                   : Missing cutoff potential type.
  Defaulting to exp(1/x)/(1-x)^2 type cutoff potential.
  Species O : No 'logarithmic' tag. Using default grid for free atom:
  | Default logarithmic grid data [bohr] : 0.1000E-03 0.1000E+03 0.1012E+01
  Species O                   : Using default innermost maximum threshold i_radial=  2 for radial functions.
  Species O                   : Default cutoff onset for free atom density etc. : 0.40000000E+01 AA.
  Species O                   : Basic radial grid will be enhanced according to radial_multiplier =   2, to contain    73 grid points.

  Reading configuration options for species C                   .
  | Found nuclear charge :   6.0000
  | Found atomic mass :    12.010700000000000      amu
  | Found l_max for Hartree potential  :   6
  | Found cutoff potl. onset [A], width [A], scale factor :    4.00000    2.00000    1.00000
  | Threshold for basis-dependent cutoff potential is   0.000000E+00
  | Found data for basic radial integration grid :    34 points, outermost radius =    7.000 A
  | Found multiplier for basic radial grid :   2
  | Found angular grid specification: user-specified.
  | Specified grid contains     7 separate shells.
  | Check grid settings after all constraints further below.
  | Found free-atom valence shell :  2 s   2.000
  | Found free-atom valence shell :  2 p   2.000
  | No ionic wave fns used. Skipping ion_occ.
  | No ionic wave fns used. Skipping ion_occ.
  | Found basis singularity cutoff : 0.1000E-03
  | Found hydrogenic basis function :  1 s   1.623
  | Found hydrogenic basis function :  1 s   3.227
  | Found hydrogenic basis function :  1 s   6.419
  | Found hydrogenic basis function :  1 s  12.768
  | Found hydrogenic basis function :  2 p   2.417
  | Found hydrogenic basis function :  2 p   4.104
  | Found hydrogenic basis function :  2 p   6.969
  | Found hydrogenic basis function :  2 p  11.834
  | Found hydrogenic basis function :  3 d   5.111
  | Found hydrogenic basis function :  3 d   6.861
  | Found hydrogenic basis function :  3 d   9.211
  | Found hydrogenic basis function :  3 d  12.366
  | Found hydrogenic basis function :  4 f  10.519
  | Found hydrogenic basis function :  4 f  11.504
  | Found hydrogenic basis function :  4 f  12.583
  | Found hydrogenic basis function :  5 g  16.246
  | Found hydrogenic basis function :  5 g  16.792
  | Found hydrogenic basis function :  6 h  22.554
  | Found hydrogenic basis function :  1 s  15.611
  | Found hydrogenic basis function :  1 s  29.662
  | Found hydrogenic basis function :  2 p  10.714
 | Encountered keyword species, ending the description of species C                   .
  Species C                   : Missing cutoff potential type.
  Defaulting to exp(1/x)/(1-x)^2 type cutoff potential.
  Species C : No 'logarithmic' tag. Using default grid for free atom:
  | Default logarithmic grid data [bohr] : 0.1000E-03 0.1000E+03 0.1012E+01
  Species C                   : Using default innermost maximum threshold i_radial=  2 for radial functions.
  Species C                   : Default cutoff onset for free atom density etc. : 0.40000000E+01 AA.
  Species C                   : Basic radial grid will be enhanced according to radial_multiplier =   2, to contain    69 grid points.

  Reading configuration options for species H                   .
  | Found nuclear charge :   1.0000
  | Found atomic mass :    1.0079400000000001      amu
  | Found l_max for Hartree potential  :   6
  | Found cutoff potl. onset [A], width [A], scale factor :    4.00000    2.00000    1.00000
  | Threshold for basis-dependent cutoff potential is   0.000000E+00
  | Found data for basic radial integration grid :    24 points, outermost radius =    7.000 A
  | Found multiplier for basic radial grid :   2
  | Found angular grid specification: user-specified.
  | Specified grid contains     7 separate shells.
  | Check grid settings after all constraints further below.
  | Found free-atom valence shell :  1 s   1.000
  | No ionic wave fns used. Skipping ion_occ.
  | Found basis singularity cutoff : 0.1000E-03
  | Found hydrogenic basis function :  1 s   1.118
  | Found hydrogenic basis function :  1 s   1.560
  | Found hydrogenic basis function :  1 s   2.178
  | Found hydrogenic basis function :  1 s   3.041
  | Found hydrogenic basis function :  2 p   2.805
  | Found hydrogenic basis function :  2 p   3.987
  | Found hydrogenic basis function :  2 p   5.665
  | Found hydrogenic basis function :  2 p   8.050
  | Found hydrogenic basis function :  3 d   6.000
  | Found hydrogenic basis function :  3 d   7.924
  | Found hydrogenic basis function :  3 d  10.465
  | Found hydrogenic basis function :  4 f  10.684
  | Found hydrogenic basis function :  4 f  13.307
  | Found hydrogenic basis function :  5 g  16.735
  | Found hydrogenic basis function :  1 s   4.246
  Species H                   : Missing cutoff potential type.
  Defaulting to exp(1/x)/(1-x)^2 type cutoff potential.
  Species H : No 'logarithmic' tag. Using default grid for free atom:
  | Default logarithmic grid data [bohr] : 0.1000E-03 0.1000E+03 0.1012E+01
  Species H                   : Using default innermost maximum threshold i_radial=  2 for radial functions.
  Species H                   : Default cutoff onset for free atom density etc. : 0.40000000E+01 AA.
  Species H                   : Basic radial grid will be enhanced according to radial_multiplier =   2, to contain    49 grid points.

  Finished reading input file 'control.in'.

------------------------------------------------------------


------------------------------------------------------------
          Reading geometry description geometry.in.
------------------------------------------------------------
  | The smallest distance between any two atoms is         0.96924844 AA.
  | The first atom of this pair is atom number                      1 .
  | The second atom of this pair is atom number                     5 .
  Input structure read successfully.
  The structure contains       18 atoms,  and a total of          2.000 electrons.

  Input geometry:
  | No unit cell requested.
  | Atomic structure:
  |       Atom                x [A]            y [A]            z [A]
  |    1: Species O            -3.30959357        0.13748183       -0.29162546
  |    2: Species C            -2.08698159        0.73454658        0.13756723
  |    3: Species H            -2.00702138        1.75571755       -0.26423810
  |    4: Species H            -2.05326137        0.77329522        1.23754483
  |    5: Species H            -4.03462733        0.75289564       -0.10445060
  |       Ghost               x [A]            y [A]            z [A]
  |    6: Species C         0.42743068        0.38531307        0.10171131
  |    7: Species C        -0.92909062       -0.11074362       -0.37948525
  |    8: Species C         2.94244472        0.01420411        0.06974410
  |    9: Species H         3.04238491       -0.16903781        1.14453345
  |   10: Species H         3.09523332        1.08289383       -0.11068144
  |   11: Species H         1.42087987       -1.49886571       -0.16588184
  |   12: Species H         1.56060989       -0.40276707       -1.53871227
  |   13: Species H         0.55538988        1.43420432       -0.20190275
  |   14: Species H         0.43760960        0.36687009        1.20086180
  |   15: Species H         3.74108550       -0.53096572       -0.43844962
  |   16: Species C         1.58523947       -0.45050003       -0.44302683
  |   17: Species H        -1.05614022       -1.15441178       -0.05392045
  |   18: Species H        -0.94141062       -0.11517384       -1.47996099

  Slab Identifier: This is not a periodic structure.

  Finished reading input file 'geometry.in'.



  Consistency checks for stacksize environment parameter are next.

  | Maximum stacksize for task 0: unlimited
  | Maximum stacksize for task 1: unlimited
  | Maximum stacksize for task 2: unlimited
  | Maximum stacksize for task 3: unlimited
  | Maximum stacksize for task 4: unlimited
  | Maximum stacksize for task 5: unlimited
  | Maximum stacksize for task 6: unlimited
  | Maximum stacksize for task 7: unlimited
  | Maximum stacksize for task 8: unlimited
  | Maximum stacksize for task 9: unlimited
  | Maximum stacksize for task 10: unlimited
  | Maximum stacksize for task 11: unlimited
  | Maximum stacksize for task 12: unlimited
  | Maximum stacksize for task 13: unlimited
  | Maximum stacksize for task 14: unlimited
  | Maximum stacksize for task 15: unlimited
  | Maximum stacksize for task 16: unlimited
  | Maximum stacksize for task 17: unlimited
  | Maximum stacksize for task 18: unlimited
  | Maximum stacksize for task 19: unlimited
  | Maximum stacksize for task 20: unlimited
  | Maximum stacksize for task 21: unlimited
  | Maximum stacksize for task 22: unlimited
  | Maximum stacksize for task 23: unlimited
  | Maximum stacksize for task 24: unlimited
  | Maximum stacksize for task 25: unlimited
  | Maximum stacksize for task 26: unlimited
  | Maximum stacksize for task 27: unlimited
  | Maximum stacksize for task 28: unlimited
  | Maximum stacksize for task 29: unlimited
  | Maximum stacksize for task 30: unlimited
  | Maximum stacksize for task 31: unlimited
  | Maximum stacksize for task 32: unlimited
  | Maximum stacksize for task 33: unlimited
  | Maximum stacksize for task 34: unlimited
  | Maximum stacksize for task 35: unlimited
  | Maximum stacksize for task 36: unlimited
  | Maximum stacksize for task 37: unlimited
  | Maximum stacksize for task 38: unlimited
  | Maximum stacksize for task 39: unlimited
  | Maximum stacksize for task 40: unlimited
  | Maximum stacksize for task 41: unlimited
  | Maximum stacksize for task 42: unlimited
  | Maximum stacksize for task 43: unlimited
  | Maximum stacksize for task 44: unlimited
  | Maximum stacksize for task 45: unlimited
  | Maximum stacksize for task 46: unlimited
  | Maximum stacksize for task 47: unlimited
  | Maximum stacksize for task 48: unlimited
  | Maximum stacksize for task 49: unlimited
  | Maximum stacksize for task 50: unlimited
  | Maximum stacksize for task 51: unlimited
  | Maximum stacksize for task 52: unlimited
  | Maximum stacksize for task 53: unlimited
  | Maximum stacksize for task 54: unlimited
  | Maximum stacksize for task 55: unlimited
  | Maximum stacksize for task 56: unlimited
  | Maximum stacksize for task 57: unlimited
  | Maximum stacksize for task 58: unlimited
  | Maximum stacksize for task 59: unlimited
  | Maximum stacksize for task 60: unlimited
  | Maximum stacksize for task 61: unlimited
  | Maximum stacksize for task 62: unlimited
  | Maximum stacksize for task 63: unlimited
  | Maximum stacksize for task 64: unlimited
  | Maximum stacksize for task 65: unlimited
  | Maximum stacksize for task 66: unlimited
  | Maximum stacksize for task 67: unlimited
  | Maximum stacksize for task 68: unlimited
  | Maximum stacksize for task 69: unlimited
  | Maximum stacksize for task 70: unlimited
  | Maximum stacksize for task 71: unlimited
  | Maximum stacksize for task 72: unlimited
  | Maximum stacksize for task 73: unlimited
  | Maximum stacksize for task 74: unlimited
  | Maximum stacksize for task 75: unlimited
  | Maximum stacksize for task 76: unlimited
  | Maximum stacksize for task 77: unlimited
  | Maximum stacksize for task 78: unlimited
  | Maximum stacksize for task 79: unlimited
  | Maximum stacksize for task 80: unlimited
  | Maximum stacksize for task 81: unlimited
  | Maximum stacksize for task 82: unlimited
  | Maximum stacksize for task 83: unlimited
  | Maximum stacksize for task 84: unlimited
  | Maximum stacksize for task 85: unlimited
  | Maximum stacksize for task 86: unlimited
  | Maximum stacksize for task 87: unlimited
  | Maximum stacksize for task 88: unlimited
  | Maximum stacksize for task 89: unlimited
  | Maximum stacksize for task 90: unlimited
  | Maximum stacksize for task 91: unlimited
  | Maximum stacksize for task 92: unlimited
  | Maximum stacksize for task 93: unlimited
  | Maximum stacksize for task 94: unlimited
  | Maximum stacksize for task 95: unlimited
  | Maximum stacksize for task 96: unlimited
  | Maximum stacksize for task 97: unlimited
  | Maximum stacksize for task 98: unlimited
  | Maximum stacksize for task 99: unlimited
  | Maximum stacksize for task 100: unlimited
  | Maximum stacksize for task 101: unlimited
  | Maximum stacksize for task 102: unlimited
  | Maximum stacksize for task 103: unlimited
  | Maximum stacksize for task 104: unlimited
  | Maximum stacksize for task 105: unlimited
  | Maximum stacksize for task 106: unlimited
  | Maximum stacksize for task 107: unlimited
  | Maximum stacksize for task 108: unlimited
  | Maximum stacksize for task 109: unlimited
  | Maximum stacksize for task 110: unlimited
  | Maximum stacksize for task 111: unlimited
  | Maximum stacksize for task 112: unlimited
  | Maximum stacksize for task 113: unlimited
  | Maximum stacksize for task 114: unlimited
  | Maximum stacksize for task 115: unlimited
  | Maximum stacksize for task 116: unlimited
  | Maximum stacksize for task 117: unlimited
  | Maximum stacksize for task 118: unlimited
  | Maximum stacksize for task 119: unlimited
  | Maximum stacksize for task 120: unlimited
  | Maximum stacksize for task 121: unlimited
  | Maximum stacksize for task 122: unlimited
  | Maximum stacksize for task 123: unlimited
  | Maximum stacksize for task 124: unlimited
  | Maximum stacksize for task 125: unlimited
  | Maximum stacksize for task 126: unlimited
  | Maximum stacksize for task 127: unlimited
  | Maximum stacksize for task 128: unlimited
  | Maximum stacksize for task 129: unlimited
  | Maximum stacksize for task 130: unlimited
  | Maximum stacksize for task 131: unlimited
  | Maximum stacksize for task 132: unlimited
  | Maximum stacksize for task 133: unlimited
  | Maximum stacksize for task 134: unlimited
  | Maximum stacksize for task 135: unlimited
  | Maximum stacksize for task 136: unlimited
  | Maximum stacksize for task 137: unlimited
  | Maximum stacksize for task 138: unlimited
  | Maximum stacksize for task 139: unlimited
  | Maximum stacksize for task 140: unlimited
  | Maximum stacksize for task 141: unlimited
  | Maximum stacksize for task 142: unlimited
  | Maximum stacksize for task 143: unlimited
  | Maximum stacksize for task 144: unlimited
  | Maximum stacksize for task 145: unlimited
  | Maximum stacksize for task 146: unlimited
  | Maximum stacksize for task 147: unlimited
  | Maximum stacksize for task 148: unlimited
  | Maximum stacksize for task 149: unlimited
  | Maximum stacksize for task 150: unlimited
  | Maximum stacksize for task 151: unlimited
  | Maximum stacksize for task 152: unlimited
  | Maximum stacksize for task 153: unlimited
  | Maximum stacksize for task 154: unlimited
  | Maximum stacksize for task 155: unlimited
  | Maximum stacksize for task 156: unlimited
  | Maximum stacksize for task 157: unlimited
  | Maximum stacksize for task 158: unlimited
  | Maximum stacksize for task 159: unlimited
  | Maximum stacksize for task 160: unlimited
  | Maximum stacksize for task 161: unlimited
  | Maximum stacksize for task 162: unlimited
  | Maximum stacksize for task 163: unlimited
  | Maximum stacksize for task 164: unlimited
  | Maximum stacksize for task 165: unlimited
  | Maximum stacksize for task 166: unlimited
  | Maximum stacksize for task 167: unlimited
  | Maximum stacksize for task 168: unlimited
  | Maximum stacksize for task 169: unlimited
  | Maximum stacksize for task 170: unlimited
  | Maximum stacksize for task 171: unlimited
  | Maximum stacksize for task 172: unlimited
  | Maximum stacksize for task 173: unlimited
  | Maximum stacksize for task 174: unlimited
  | Maximum stacksize for task 175: unlimited
  | Maximum stacksize for task 176: unlimited
  | Maximum stacksize for task 177: unlimited
  | Maximum stacksize for task 178: unlimited
  | Maximum stacksize for task 179: unlimited
  | Maximum stacksize for task 180: unlimited
  | Maximum stacksize for task 181: unlimited
  | Maximum stacksize for task 182: unlimited
  | Maximum stacksize for task 183: unlimited
  | Maximum stacksize for task 184: unlimited
  | Maximum stacksize for task 185: unlimited
  | Maximum stacksize for task 186: unlimited
  | Maximum stacksize for task 187: unlimited
  | Maximum stacksize for task 188: unlimited
  | Maximum stacksize for task 189: unlimited
  | Maximum stacksize for task 190: unlimited
  | Maximum stacksize for task 191: unlimited
  | Maximum stacksize for task 192: unlimited
  | Maximum stacksize for task 193: unlimited
  | Maximum stacksize for task 194: unlimited
  | Maximum stacksize for task 195: unlimited
  | Maximum stacksize for task 196: unlimited
  | Maximum stacksize for task 197: unlimited
  | Maximum stacksize for task 198: unlimited
  | Maximum stacksize for task 199: unlimited
  | Maximum stacksize for task 200: unlimited
  | Maximum stacksize for task 201: unlimited
  | Maximum stacksize for task 202: unlimited
  | Maximum stacksize for task 203: unlimited
  | Maximum stacksize for task 204: unlimited
  | Maximum stacksize for task 205: unlimited
  | Maximum stacksize for task 206: unlimited
  | Maximum stacksize for task 207: unlimited
  | Maximum stacksize for task 208: unlimited
  | Maximum stacksize for task 209: unlimited
  | Maximum stacksize for task 210: unlimited
  | Maximum stacksize for task 211: unlimited
  | Maximum stacksize for task 212: unlimited
  | Maximum stacksize for task 213: unlimited
  | Maximum stacksize for task 214: unlimited
  | Maximum stacksize for task 215: unlimited
  | Maximum stacksize for task 216: unlimited
  | Maximum stacksize for task 217: unlimited
  | Maximum stacksize for task 218: unlimited
  | Maximum stacksize for task 219: unlimited
  | Maximum stacksize for task 220: unlimited
  | Maximum stacksize for task 221: unlimited
  | Maximum stacksize for task 222: unlimited
  | Maximum stacksize for task 223: unlimited
  | Maximum stacksize for task 224: unlimited
  | Maximum stacksize for task 225: unlimited
  | Maximum stacksize for task 226: unlimited
  | Maximum stacksize for task 227: unlimited
  | Maximum stacksize for task 228: unlimited
  | Maximum stacksize for task 229: unlimited
  | Maximum stacksize for task 230: unlimited
  | Maximum stacksize for task 231: unlimited
  | Maximum stacksize for task 232: unlimited
  | Maximum stacksize for task 233: unlimited
  | Maximum stacksize for task 234: unlimited
  | Maximum stacksize for task 235: unlimited
  | Maximum stacksize for task 236: unlimited
  | Maximum stacksize for task 237: unlimited
  | Maximum stacksize for task 238: unlimited
  | Maximum stacksize for task 239: unlimited
  | Maximum stacksize for task 240: unlimited
  | Maximum stacksize for task 241: unlimited
  | Maximum stacksize for task 242: unlimited
  | Maximum stacksize for task 243: unlimited
  | Maximum stacksize for task 244: unlimited
  | Maximum stacksize for task 245: unlimited
  | Maximum stacksize for task 246: unlimited
  | Maximum stacksize for task 247: unlimited
  | Maximum stacksize for task 248: unlimited
  | Maximum stacksize for task 249: unlimited
  | Maximum stacksize for task 250: unlimited
  | Maximum stacksize for task 251: unlimited
  | Maximum stacksize for task 252: unlimited
  | Maximum stacksize for task 253: unlimited
  | Maximum stacksize for task 254: unlimited
  | Maximum stacksize for task 255: unlimited
  | Maximum stacksize for task 256: unlimited
  | Maximum stacksize for task 257: unlimited
  | Maximum stacksize for task 258: unlimited
  | Maximum stacksize for task 259: unlimited
  | Maximum stacksize for task 260: unlimited
  | Maximum stacksize for task 261: unlimited
  | Maximum stacksize for task 262: unlimited
  | Maximum stacksize for task 263: unlimited
  | Maximum stacksize for task 264: unlimited
  | Maximum stacksize for task 265: unlimited
  | Maximum stacksize for task 266: unlimited
  | Maximum stacksize for task 267: unlimited
  | Maximum stacksize for task 268: unlimited
  | Maximum stacksize for task 269: unlimited
  | Maximum stacksize for task 270: unlimited
  | Maximum stacksize for task 271: unlimited
  | Maximum stacksize for task 272: unlimited
  | Maximum stacksize for task 273: unlimited
  | Maximum stacksize for task 274: unlimited
  | Maximum stacksize for task 275: unlimited
  | Maximum stacksize for task 276: unlimited
  | Maximum stacksize for task 277: unlimited
  | Maximum stacksize for task 278: unlimited
  | Maximum stacksize for task 279: unlimited
  | Maximum stacksize for task 280: unlimited
  | Maximum stacksize for task 281: unlimited
  | Maximum stacksize for task 282: unlimited
  | Maximum stacksize for task 283: unlimited
  | Maximum stacksize for task 284: unlimited
  | Maximum stacksize for task 285: unlimited
  | Maximum stacksize for task 286: unlimited
  | Maximum stacksize for task 287: unlimited
  | Maximum stacksize for task 288: unlimited
  | Maximum stacksize for task 289: unlimited
  | Maximum stacksize for task 290: unlimited
  | Maximum stacksize for task 291: unlimited
  | Maximum stacksize for task 292: unlimited
  | Maximum stacksize for task 293: unlimited
  | Maximum stacksize for task 294: unlimited
  | Maximum stacksize for task 295: unlimited
  | Maximum stacksize for task 296: unlimited
  | Maximum stacksize for task 297: unlimited
  | Maximum stacksize for task 298: unlimited
  | Maximum stacksize for task 299: unlimited
  | Maximum stacksize for task 300: unlimited
  | Maximum stacksize for task 301: unlimited
  | Maximum stacksize for task 302: unlimited
  | Maximum stacksize for task 303: unlimited
  | Maximum stacksize for task 304: unlimited
  | Maximum stacksize for task 305: unlimited
  | Maximum stacksize for task 306: unlimited
  | Maximum stacksize for task 307: unlimited
  | Maximum stacksize for task 308: unlimited
  | Maximum stacksize for task 309: unlimited
  | Maximum stacksize for task 310: unlimited
  | Maximum stacksize for task 311: unlimited
  | Maximum stacksize for task 312: unlimited
  | Maximum stacksize for task 313: unlimited
  | Maximum stacksize for task 314: unlimited
  | Maximum stacksize for task 315: unlimited
  | Maximum stacksize for task 316: unlimited
  | Maximum stacksize for task 317: unlimited
  | Maximum stacksize for task 318: unlimited
  | Maximum stacksize for task 319: unlimited
  | Maximum stacksize for task 320: unlimited
  | Maximum stacksize for task 321: unlimited
  | Maximum stacksize for task 322: unlimited
  | Maximum stacksize for task 323: unlimited
  | Maximum stacksize for task 324: unlimited
  | Maximum stacksize for task 325: unlimited
  | Maximum stacksize for task 326: unlimited
  | Maximum stacksize for task 327: unlimited
  | Maximum stacksize for task 328: unlimited
  | Maximum stacksize for task 329: unlimited
  | Maximum stacksize for task 330: unlimited
  | Maximum stacksize for task 331: unlimited
  | Maximum stacksize for task 332: unlimited
  | Maximum stacksize for task 333: unlimited
  | Maximum stacksize for task 334: unlimited
  | Maximum stacksize for task 335: unlimited
  | Maximum stacksize for task 336: unlimited
  | Maximum stacksize for task 337: unlimited
  | Maximum stacksize for task 338: unlimited
  | Maximum stacksize for task 339: unlimited
  | Maximum stacksize for task 340: unlimited
  | Maximum stacksize for task 341: unlimited
  | Maximum stacksize for task 342: unlimited
  | Maximum stacksize for task 343: unlimited
  | Maximum stacksize for task 344: unlimited
  | Maximum stacksize for task 345: unlimited
  | Maximum stacksize for task 346: unlimited
  | Maximum stacksize for task 347: unlimited
  | Maximum stacksize for task 348: unlimited
  | Maximum stacksize for task 349: unlimited
  | Maximum stacksize for task 350: unlimited
  | Maximum stacksize for task 351: unlimited
  | Maximum stacksize for task 352: unlimited
  | Maximum stacksize for task 353: unlimited
  | Maximum stacksize for task 354: unlimited
  | Maximum stacksize for task 355: unlimited
  | Maximum stacksize for task 356: unlimited
  | Maximum stacksize for task 357: unlimited
  | Maximum stacksize for task 358: unlimited
  | Maximum stacksize for task 359: unlimited
  | Maximum stacksize for task 360: unlimited
  | Maximum stacksize for task 361: unlimited
  | Maximum stacksize for task 362: unlimited
  | Maximum stacksize for task 363: unlimited
  | Maximum stacksize for task 364: unlimited
  | Maximum stacksize for task 365: unlimited
  | Maximum stacksize for task 366: unlimited
  | Maximum stacksize for task 367: unlimited
  | Maximum stacksize for task 368: unlimited
  | Maximum stacksize for task 369: unlimited
  | Maximum stacksize for task 370: unlimited
  | Maximum stacksize for task 371: unlimited
  | Maximum stacksize for task 372: unlimited
  | Maximum stacksize for task 373: unlimited
  | Maximum stacksize for task 374: unlimited
  | Maximum stacksize for task 375: unlimited
  | Maximum stacksize for task 376: unlimited
  | Maximum stacksize for task 377: unlimited
  | Maximum stacksize for task 378: unlimited
  | Maximum stacksize for task 379: unlimited
  | Maximum stacksize for task 380: unlimited
  | Maximum stacksize for task 381: unlimited
  | Maximum stacksize for task 382: unlimited
  | Maximum stacksize for task 383: unlimited
  | Maximum stacksize for task 384: unlimited
  | Maximum stacksize for task 385: unlimited
  | Maximum stacksize for task 386: unlimited
  | Maximum stacksize for task 387: unlimited
  | Maximum stacksize for task 388: unlimited
  | Maximum stacksize for task 389: unlimited
  | Maximum stacksize for task 390: unlimited
  | Maximum stacksize for task 391: unlimited
  | Maximum stacksize for task 392: unlimited
  | Maximum stacksize for task 393: unlimited
  | Maximum stacksize for task 394: unlimited
  | Maximum stacksize for task 395: unlimited
  | Maximum stacksize for task 396: unlimited
  | Maximum stacksize for task 397: unlimited
  | Maximum stacksize for task 398: unlimited
  | Maximum stacksize for task 399: unlimited
  | Maximum stacksize for task 400: unlimited
  | Maximum stacksize for task 401: unlimited
  | Maximum stacksize for task 402: unlimited
  | Maximum stacksize for task 403: unlimited
  | Maximum stacksize for task 404: unlimited
  | Maximum stacksize for task 405: unlimited
  | Maximum stacksize for task 406: unlimited
  | Maximum stacksize for task 407: unlimited
  | Maximum stacksize for task 408: unlimited
  | Maximum stacksize for task 409: unlimited
  | Maximum stacksize for task 410: unlimited
  | Maximum stacksize for task 411: unlimited
  | Maximum stacksize for task 412: unlimited
  | Maximum stacksize for task 413: unlimited
  | Maximum stacksize for task 414: unlimited
  | Maximum stacksize for task 415: unlimited
  | Maximum stacksize for task 416: unlimited
  | Maximum stacksize for task 417: unlimited
  | Maximum stacksize for task 418: unlimited
  | Maximum stacksize for task 419: unlimited
  | Maximum stacksize for task 420: unlimited
  | Maximum stacksize for task 421: unlimited
  | Maximum stacksize for task 422: unlimited
  | Maximum stacksize for task 423: unlimited
  | Maximum stacksize for task 424: unlimited
  | Maximum stacksize for task 425: unlimited
  | Maximum stacksize for task 426: unlimited
  | Maximum stacksize for task 427: unlimited
  | Maximum stacksize for task 428: unlimited
  | Maximum stacksize for task 429: unlimited
  | Maximum stacksize for task 430: unlimited
  | Maximum stacksize for task 431: unlimited
  | Maximum stacksize for task 432: unlimited
  | Maximum stacksize for task 433: unlimited
  | Maximum stacksize for task 434: unlimited
  | Maximum stacksize for task 435: unlimited
  | Maximum stacksize for task 436: unlimited
  | Maximum stacksize for task 437: unlimited
  | Maximum stacksize for task 438: unlimited
  | Maximum stacksize for task 439: unlimited
  | Maximum stacksize for task 440: unlimited
  | Maximum stacksize for task 441: unlimited
  | Maximum stacksize for task 442: unlimited
  | Maximum stacksize for task 443: unlimited
  | Maximum stacksize for task 444: unlimited
  | Maximum stacksize for task 445: unlimited
  | Maximum stacksize for task 446: unlimited
  | Maximum stacksize for task 447: unlimited
  | Maximum stacksize for task 448: unlimited
  | Maximum stacksize for task 449: unlimited
  | Maximum stacksize for task 450: unlimited
  | Maximum stacksize for task 451: unlimited
  | Maximum stacksize for task 452: unlimited
  | Maximum stacksize for task 453: unlimited
  | Maximum stacksize for task 454: unlimited
  | Maximum stacksize for task 455: unlimited
  | Maximum stacksize for task 456: unlimited
  | Maximum stacksize for task 457: unlimited
  | Maximum stacksize for task 458: unlimited
  | Maximum stacksize for task 459: unlimited
  | Maximum stacksize for task 460: unlimited
  | Maximum stacksize for task 461: unlimited
  | Maximum stacksize for task 462: unlimited
  | Maximum stacksize for task 463: unlimited
  | Maximum stacksize for task 464: unlimited
  | Maximum stacksize for task 465: unlimited
  | Maximum stacksize for task 466: unlimited
  | Maximum stacksize for task 467: unlimited
  | Maximum stacksize for task 468: unlimited
  | Maximum stacksize for task 469: unlimited
  | Maximum stacksize for task 470: unlimited
  | Maximum stacksize for task 471: unlimited
  | Maximum stacksize for task 472: unlimited
  | Maximum stacksize for task 473: unlimited
  | Maximum stacksize for task 474: unlimited
  | Maximum stacksize for task 475: unlimited
  | Maximum stacksize for task 476: unlimited
  | Maximum stacksize for task 477: unlimited
  | Maximum stacksize for task 478: unlimited
  | Maximum stacksize for task 479: unlimited
  | Maximum stacksize for task 480: unlimited
  | Maximum stacksize for task 481: unlimited
  | Maximum stacksize for task 482: unlimited
  | Maximum stacksize for task 483: unlimited
  | Maximum stacksize for task 484: unlimited
  | Maximum stacksize for task 485: unlimited
  | Maximum stacksize for task 486: unlimited
  | Maximum stacksize for task 487: unlimited
  | Maximum stacksize for task 488: unlimited
  | Maximum stacksize for task 489: unlimited
  | Maximum stacksize for task 490: unlimited
  | Maximum stacksize for task 491: unlimited
  | Maximum stacksize for task 492: unlimited
  | Maximum stacksize for task 493: unlimited
  | Maximum stacksize for task 494: unlimited
  | Maximum stacksize for task 495: unlimited
  | Maximum stacksize for task 496: unlimited
  | Maximum stacksize for task 497: unlimited
  | Maximum stacksize for task 498: unlimited
  | Maximum stacksize for task 499: unlimited
  | Maximum stacksize for task 500: unlimited
  | Maximum stacksize for task 501: unlimited
  | Maximum stacksize for task 502: unlimited
  | Maximum stacksize for task 503: unlimited
  | Maximum stacksize for task 504: unlimited
  | Maximum stacksize for task 505: unlimited
  | Maximum stacksize for task 506: unlimited
  | Maximum stacksize for task 507: unlimited
  | Maximum stacksize for task 508: unlimited
  | Maximum stacksize for task 509: unlimited
  | Maximum stacksize for task 510: unlimited
  | Maximum stacksize for task 511: unlimited
  | Current stacksize for task 0: unlimited
  | Current stacksize for task 1: unlimited
  | Current stacksize for task 2: unlimited
  | Current stacksize for task 3: unlimited
  | Current stacksize for task 4: unlimited
  | Current stacksize for task 5: unlimited
  | Current stacksize for task 6: unlimited
  | Current stacksize for task 7: unlimited
  | Current stacksize for task 8: unlimited
  | Current stacksize for task 9: unlimited
  | Current stacksize for task 10: unlimited
  | Current stacksize for task 11: unlimited
  | Current stacksize for task 12: unlimited
  | Current stacksize for task 13: unlimited
  | Current stacksize for task 14: unlimited
  | Current stacksize for task 15: unlimited
  | Current stacksize for task 16: unlimited
  | Current stacksize for task 17: unlimited
  | Current stacksize for task 18: unlimited
  | Current stacksize for task 19: unlimited
  | Current stacksize for task 20: unlimited
  | Current stacksize for task 21: unlimited
  | Current stacksize for task 22: unlimited
  | Current stacksize for task 23: unlimited
  | Current stacksize for task 24: unlimited
  | Current stacksize for task 25: unlimited
  | Current stacksize for task 26: unlimited
  | Current stacksize for task 27: unlimited
  | Current stacksize for task 28: unlimited
  | Current stacksize for task 29: unlimited
  | Current stacksize for task 30: unlimited
  | Current stacksize for task 31: unlimited
  | Current stacksize for task 32: unlimited
  | Current stacksize for task 33: unlimited
  | Current stacksize for task 34: unlimited
  | Current stacksize for task 35: unlimited
  | Current stacksize for task 36: unlimited
  | Current stacksize for task 37: unlimited
  | Current stacksize for task 38: unlimited
  | Current stacksize for task 39: unlimited
  | Current stacksize for task 40: unlimited
  | Current stacksize for task 41: unlimited
  | Current stacksize for task 42: unlimited
  | Current stacksize for task 43: unlimited
  | Current stacksize for task 44: unlimited
  | Current stacksize for task 45: unlimited
  | Current stacksize for task 46: unlimited
  | Current stacksize for task 47: unlimited
  | Current stacksize for task 48: unlimited
  | Current stacksize for task 49: unlimited
  | Current stacksize for task 50: unlimited
  | Current stacksize for task 51: unlimited
  | Current stacksize for task 52: unlimited
  | Current stacksize for task 53: unlimited
  | Current stacksize for task 54: unlimited
  | Current stacksize for task 55: unlimited
  | Current stacksize for task 56: unlimited
  | Current stacksize for task 57: unlimited
  | Current stacksize for task 58: unlimited
  | Current stacksize for task 59: unlimited
  | Current stacksize for task 60: unlimited
  | Current stacksize for task 61: unlimited
  | Current stacksize for task 62: unlimited
  | Current stacksize for task 63: unlimited
  | Current stacksize for task 64: unlimited
  | Current stacksize for task 65: unlimited
  | Current stacksize for task 66: unlimited
  | Current stacksize for task 67: unlimited
  | Current stacksize for task 68: unlimited
  | Current stacksize for task 69: unlimited
  | Current stacksize for task 70: unlimited
  | Current stacksize for task 71: unlimited
  | Current stacksize for task 72: unlimited
  | Current stacksize for task 73: unlimited
  | Current stacksize for task 74: unlimited
  | Current stacksize for task 75: unlimited
  | Current stacksize for task 76: unlimited
  | Current stacksize for task 77: unlimited
  | Current stacksize for task 78: unlimited
  | Current stacksize for task 79: unlimited
  | Current stacksize for task 80: unlimited
  | Current stacksize for task 81: unlimited
  | Current stacksize for task 82: unlimited
  | Current stacksize for task 83: unlimited
  | Current stacksize for task 84: unlimited
  | Current stacksize for task 85: unlimited
  | Current stacksize for task 86: unlimited
  | Current stacksize for task 87: unlimited
  | Current stacksize for task 88: unlimited
  | Current stacksize for task 89: unlimited
  | Current stacksize for task 90: unlimited
  | Current stacksize for task 91: unlimited
  | Current stacksize for task 92: unlimited
  | Current stacksize for task 93: unlimited
  | Current stacksize for task 94: unlimited
  | Current stacksize for task 95: unlimited
  | Current stacksize for task 96: unlimited
  | Current stacksize for task 97: unlimited
  | Current stacksize for task 98: unlimited
  | Current stacksize for task 99: unlimited
  | Current stacksize for task 100: unlimited
  | Current stacksize for task 101: unlimited
  | Current stacksize for task 102: unlimited
  | Current stacksize for task 103: unlimited
  | Current stacksize for task 104: unlimited
  | Current stacksize for task 105: unlimited
[...]
          Density and Forces (densmat)                 :  max(cpu_time)    wall_clock(cpu1)
          | Total time                                  :        2.006 s           2.006 s
          | Fetch Density Variables time                :        0.000 s           0.000 s
  Integration grid: deviation in total charge (<rho> - N_e) =   3.552714E-15

  Time for density update prior                :  max(cpu_time)    wall_clock(cpu1)
  | self-consistency iterative process          :        2.007 s           2.008 s
  Available memory before start of SCF loop [GB]:    206.31

------------------------------------------------------------
          Initial SCF-cycle to compute last known
          density from restart information.

  Date     :  20250628, Time     :  083429.087
------------------------------------------------------------
  Available memory per node after mixing [GB]:    206.31
  Renormalizing the density to the exact electron count on the 3D integration grid.
  | Formal number of electrons (from input files) :      18.0000000000
  | Integrated number of electrons on 3D grid     :      18.0000000000
  | Charge integration error                      :      -0.0000000000
  | Normalization factor for density and gradient :       1.0000000000

  Evaluating partitioned Hartree potential by multipole expansion.
  | Original multipole sum: apparent total charge =  -0.100000E+01
  | Sum of charges compensated after spline to logarithmic grids =  -0.179089E-05
  | Analytical far-field extrapolation by fixed multipoles:
  | Hartree multipole sum: apparent total charge =  -0.100000E+01
  Summing up the Hartree potential.
  Time summed over all CPUs for potential: real work        0.034 s, elapsed        0.035 s
  | RMS charge density error from multipole expansion :   0.755091E-02

  Integrating Hamiltonian matrix: batch-based integration.
  Time summed over all CPUs for integration: real work      121.896 s, elapsed      129.711 s
          Integrate hamiltonian matrix                 :  max(cpu_time)    wall_clock(cpu1)
          | Total time                                  :        1.042 s           1.042 s

  Updating Kohn-Sham eigenvalues and eigenvectors using ELSI and the ELPA eigensolver.
      Allocating      0.102 MB for copy
      Deallocating copy
  Overlap matrix is singular
  | Lowest and highest eigenvalues :  0.6827E-06,  0.1079E+02
  | Number of basis functions reduced to :      1232
  Finished singularity check of overlap matrix
  | Time :     0.105 s
  Starting ELPA eigensolver
  Finished transformation to standard eigenproblem
  | Time :     0.019 s
  Finished solving standard eigenproblem
  | Time :     0.070 s
      Allocating      0.102 MB for tmp
      Deallocating tmp
  Finished back-transformation of eigenvectors
  | Time :     0.001 s

  The overlap matrix is singular
  The lowest eigenvalue of the overlap matrix  0.6827E-06 is below the prescribed threshold  0.1000E-04

  Obtaining occupation numbers and electronic chemical potential using ELSI.
  | Note that, for insulating systems, the printed 'chemical potential' value is not uniquely defined.
  | It can be anywhere in the energy gap, as long as it correctly separates occupied and unoccupied states.
  | In systems with a gap, the physically relevant chemical potential is the VBM or HOMO.

  | Chemical potential (Fermi level):     3.90767482 eV
  Writing Kohn-Sham eigenvalues.

  State    Occupation    Eigenvalue [Ha]    Eigenvalue [eV]
      1       2.00000         -18.530318         -504.23562
      2       2.00000          -9.474922         -257.82576
      3       2.00000          -0.678031          -18.45016
      4       2.00000          -0.275561           -7.49840
      5       2.00000          -0.172903           -4.70494
      6       2.00000          -0.083097           -2.26118
      7       2.00000          -0.059825           -1.62793
      8       2.00000           0.032678            0.88922
      9       2.00000           0.141188            3.84192
     10       0.00000           0.146021            3.97343
     11       0.00000           0.185458            5.04656
     12       0.00000           0.194812            5.30111
     13       0.00000           0.200058            5.44384
     14       0.00000           0.203860            5.54731
     15       0.00000           0.219176            5.96408
     16       0.00000           0.245340            6.67603
     17       0.00000           0.246381            6.70436
     18       0.00000           0.255939            6.96446
     19       0.00000           0.271393            7.38499
     20       0.00000           0.289893            7.88840

  Highest occupied state (VBM) at      3.84192143 eV
  | Occupation number:      2.00000000
 * WARNING: The VBM is higher than the internal energy zero!

  Lowest unoccupied state (CBM) at     3.97342821 eV
  | Occupation number:      0.00000000

  Overall HOMO-LUMO gap:      0.13150678 eV.

  Total energy components:
  | Sum of eigenvalues            :         -58.20158463 Ha       -1583.74569775 eV
  | XC energy correction          :         -15.36317011 Ha        -418.05312901 eV
  | XC potential correction       :          19.75215562 Ha         537.48350126 eV
  | Free-atom electrostatic energy:         -52.96208550 Ha       -1441.17167236 eV
  | Hartree energy correction     :          -8.71510727 Ha        -237.15013502 eV
  | Entropy correction            :          -0.00000000 Ha          -0.00000000 eV
  | ---------------------------
  | Total energy                  :        -115.48979189 Ha       -3142.63713287 eV
  | Total energy, T -> 0          :        -115.48979189 Ha       -3142.63713287 eV  <-- do not rely on this value for anything but (periodic) metals
  | Electronic free energy        :        -115.48979189 Ha       -3142.63713287 eV

  Derived energy quantities:
  | Kinetic energy                :         114.52217134 Ha        3116.30683798 eV
  | Electrostatic energy          :        -214.64879311 Ha       -5840.89084184 eV
  | Energy correction for multipole
  | error in Hartree potential    :          -0.00478009 Ha          -0.13007295 eV
  | Sum of eigenvalues per atom                           :         -87.98587210 eV
  | Total energy (T->0) per atom                          :        -174.59095183 eV  <-- do not rely on this value for anything but (periodic) metals
  | Electronic free energy per atom                       :        -174.59095183 eV

  Self-consistency convergence accuracy:
  | Change of charge density      :  0.3745E+00
  | Change of unmixed KS density  :  0.1065E+02
  | Change of sum of eigenvalues  : -0.1584E+04 eV
  | Change of total energy        : -0.3143E+04 eV


  ------------------------------------------------------------
             Starting Unitary Localisation of CMOs
  ------------------------------------------------------------
 Exporting DM for embedding
  Evaluating density matrix
      Allocating      0.102 MB for tmp
      Allocating      0.123 MB for tmp
      Deallocating tmp
      Deallocating tmp
  Finished density matrix calculation
  | Time :     0.001 s
  Finished localisation of CMOs in           0.690 s

  ------------------------------------------------------------
            Completed Unitary Localisation of CMOs
  ------------------------------------------------------------

  Integrating Hamiltonian matrix: batch-based integration.
  Time summed over all CPUs for integration: real work      360.966 s, elapsed      384.257 s
          Integrate hamiltonian matrix - separate compo:  max(cpu_time)    wall_clock(cpu1)
          | Total time                                  :        3.081 s           3.081 s
  Writing Kohn-Sham eigenvalues.

  State    Occupation    Eigenvalue [Ha]    Eigenvalue [eV]
      1       2.00000         -18.530318         -504.23562
      2       2.00000          -9.474922         -257.82576
      3       2.00000          -0.678031          -18.45016
      4       2.00000          -0.275561           -7.49840
      5       2.00000          -0.172903           -4.70494
      6       2.00000          -0.083097           -2.26118
      7       2.00000          -0.059825           -1.62793
      8       2.00000           0.032678            0.88922
      9       2.00000           0.141188            3.84192
     10       0.00000           0.146021            3.97343
     11       0.00000           0.185458            5.04656
     12       0.00000           0.194812            5.30111
     13       0.00000           0.200058            5.44384
     14       0.00000           0.203860            5.54731
     15       0.00000           0.219176            5.96408
     16       0.00000           0.245340            6.67603
     17       0.00000           0.246381            6.70436
     18       0.00000           0.255939            6.96446
     19       0.00000           0.271393            7.38499
     20       0.00000           0.289893            7.88840

  Highest occupied state (VBM) at      3.84192143 eV
  | Occupation number:      2.00000000
 * WARNING: The VBM is higher than the internal energy zero!

  Lowest unoccupied state (CBM) at     3.97342821 eV
  | Occupation number:      0.00000000

  Overall HOMO-LUMO gap:      0.13150678 eV.

  | Chemical Potential                          :     3.90767482 eV
  | Note that, for insulating systems, the printed 'chemical potential' value is not uniquely defined.
  | It can be anywhere in the energy gap, as long as it correctly separates occupied and unoccupied states.
  | In systems with a gap, the physically relevant chemical potential is the VBM or HOMO.

  Self-consistency cycle converged.


------------------------------------------------------------
  End self-consistency iteration #     0       :  max(cpu_time)    wall_clock(cpu1)
  | Time for this iteration                     :        4.489 s           4.490 s
  | Charge density update                       :        0.000 s           0.000 s
  | Density mixing                              :        0.001 s           0.000 s
  | Hartree multipole update                    :        0.004 s           0.004 s
  | Hartree multipole summation                 :        0.036 s           0.036 s
  | Integration                                 :        1.042 s           1.042 s
  | Solution of K.-S. eqns.                     :        0.200 s           0.200 s
  | Total energy evaluation                     :        0.000 s           0.000 s

  Partial memory accounting:
  | Current value for overall tracked memory usage:
  |   Minimum:       11.709 MB (on task 126)
  |   Maximum:       11.887 MB (on task 108)
  |   Average:       11.815 MB
  | Peak value for overall tracked memory usage:
  |   Minimum:       73.976 MB (on task 103 after allocating wave)
  |   Maximum:       74.741 MB (on task   4 after allocating wave)
  |   Average:       74.612 MB
  | Largest tracked array allocation so far:
  |   Minimum:       11.883 MB (dm_dump on task   0)
  |   Maximum:       11.883 MB (dm_dump on task   0)
  |   Average:       11.883 MB
  Note:  These values currently only include a subset of arrays which are explicitly tracked.
  The "true" memory usage will be greater.
------------------------------------------------------------

  Energy and forces in a compact form:
  | Total energy uncorrected      :         -0.314263713286894E+04 eV
  | Total energy corrected        :         -0.314263713286894E+04 eV  <-- do not rely on this value for anything but (periodic) metals
  | Electronic free energy        :         -0.314263713286894E+04 eV

  ------------------------------------ 
  Start decomposition of the XC Energy 
  ------------------------------------ 
  X and C from original XC functional choice 
  Hartree-Fock Energy :          0.000000000 Ha              0.000000000 eV
  X Energy            :        -14.782055409 Ha           -402.240193426 eV
  C Energy            :         -0.581114702 Ha            -15.812935583 eV
  XC Energy w/o HF    :        -15.363170110 Ha           -418.053129008 eV
  Total XC Energy     :        -15.363170110 Ha           -418.053129008 eV
  ------------------------------------ 
  LDA X and C from self-consistent density 
  X Energy LDA        :        -13.399298032 Ha           -364.613450772 eV
  C Energy LDA        :         -1.154219466 Ha            -31.407909681 eV
  ------------------------------------ 
  End decomposition of the XC Energy 
  ------------------------------------ 

------------------------------------------------------------
------------------------------------------------------------

------------------------------------------------------------------------------
  Final output of selected total energy values:

  The following output summarizes some interesting total energy values
  at the end of a run (AFTER all relaxation, molecular dynamics, etc.).

  | Total energy of the DFT / Hartree-Fock s.c.f. calculation      :          -3142.637132869 eV
  | Final zero-broadening corrected energy (caution - metals only) :          -3142.637132869 eV
  | For reference only, the value of 1 Hartree used in FHI-aims is :             27.211384500 eV

  Before relying on these values, please be sure to understand exactly which
  total energy value is referred to by a given number. Different objects may
  all carry the same name 'total energy'. Definitions:

  Total energy of the DFT / Hartree-Fock s.c.f. calculation:
  | Note that this energy does not include ANY quantities calculated after the
  | s.c.f. cycle, in particular not ANY RPA, MP2, etc. many-body perturbation terms.

  Final zero-broadening corrected energy:
  | For metallic systems only, a broadening of the occupation numbers at the Fermi
  | level can be extrapolated back to zero broadening by an electron-gas inspired
  | formula. For all systems that are not real metals, this value can be
  | meaningless and should be avoided.

------------------------------------------------------------------------------
  Methods described in the following list of references were used in this FHI-aims run.
  If you publish the results, please make sure to cite these reference if they apply.
  FHI-aims is an academic code, and for our developers (often, Ph.D. students
  and postdocs), scientific credit in the community is essential.
  Thank you for helping us!

  For any use of FHI-aims, please cite:

    Volker Blum, Ralf Gehrke, Felix Hanke, Paula Havu, Ville Havu,
    Xinguo Ren, Karsten Reuter, and Matthias Scheffler
    'Ab initio molecular simulations with numeric atom-centered orbitals'
    Computer Physics Communications 180, 2175-2196 (2009)
    http://doi.org/10.1016/j.cpc.2009.06.022


  For the NAO-VCC-nZ basis sets used in this calculation, please cite:

    Igor Ying Zhang, Xinguo Ren, Patrick Rinke, Volker Blum, and Matthias Scheffler
    'Numeric atom-centered-orbital basis sets with valence-correlation consistency from H to Ar'
    New Journal of Physics 15, 123033 (2013).
    http://doi.org/10.1088/1367-2630/15/12/123033


  The ELSI infrastructure was used in your run to solve the Kohn-Sham electronic structure.
  Please check out https://wordpress.elsi-interchange.org to learn more.
  If scalability is important for your project, please acknowledge ELSI by citing:

    V. W-z. Yu, F. Corsetti, A. Garcia, W. P. Huhn, M. Jacquelin, W. Jia,
    B. Lange, L. Lin, J. Lu, W. Mi, A. Seifitokaldani, A. Vazquez-Mayagoitia,
    C. Yang, H. Yang, and V. Blum
    'ELSI: A unified software interface for Kohn-Sham electronic structure solvers'
    Computer Physics Communications 222, 267-285 (2018).
    http://doi.org/10.1016/j.cpc.2017.09.007


  For the real-space grid partitioning and parallelization used in this calculation, please cite:

    Ville Havu, Volker Blum, Paula Havu, and Matthias Scheffler,
    'Efficient O(N) integration for all-electron electronic structure calculation'
    'using numerically tabulated basis functions'
    Journal of Computational Physics 228, 8367-8379 (2009).
    http://doi.org/10.1016/j.jcp.2009.08.008


  The high-level electronic structure method used in your calculation
  employed our efficient localized resolution of identity for the Coulomb operator.
  Some calculations, especially large-scale hybrid density functional theory,
  are only possible thanks to this development. For this feature, please cite:

    Arvid Ihrig, Juergen Wieferink, Igor Ying Zhang, Matti Ropo, Xinguo Ren,
    Patrick Rinke, Matthias Scheffler, and Volker Blum,
    'Accurate localized resolution of identity approach for linear-scaling
    hybrid density functionals and for many-body perturbation theory'
    New Journal of Physics 117, 093020 (2015).
    http://doi.org/10.1088/1367-2630/17/9/093020

  Of course, there are many other important community references, e.g., those cited in the
  above references. Our list is limited to references that describe implementations in the
  FHI-aims code. The reason is purely practical (length of this list) - please credit others as well.
------------------------------------------------------------
Warnings summary:

At least    2 warnings were raised during execution.
** WARNING:
 * Warning: The chosen 'charge_mix_param' value was not between zero or one.
 * The value found in control.in should have caused s.c.f. convergence problems.
** END OF WARNING

------------------------------------------------------------
          Leaving FHI-aims.
          Date     :  20250628, Time     :  083433.830

          Computational steps:
          | Number of self-consistency cycles          :            0
          | Number of SCF (re)initializations          :            1

          Detailed time accounting                     :  max(cpu_time)    wall_clock(cpu1)
          | Total time                                  :        9.357 s           9.356 s
          | Preparation time                            :        0.294 s           0.292 s
          | Boundary condition initalization            :        0.010 s           0.010 s
          | Grid partitioning                           :        0.251 s           0.251 s
          | Preloading free-atom quantities on grid     :        0.077 s           0.077 s
          | Free-atom superposition energy              :        0.005 s           0.005 s
          | Total time for integrations                 :        2.888 s           2.887 s
          | Total time for solution of K.-S. equations  :        0.200 s           0.200 s
          | Total time for density update               :        2.007 s           2.008 s
          | Total time for mixing                       :        0.001 s           0.000 s
          | Total time for Hartree multipole update     :        0.004 s           0.004 s
          | Total time for Hartree multipole sum        :        0.036 s           0.036 s
          | Total time for total energy evaluation      :        0.000 s           0.000 s
          | Total time for scaled ZORA corrections      :        0.000 s           0.000 s

          Partial memory accounting:
          | Residual value for overall tracked memory usage across tasks:     0.000000 MB (should be 0.000000 MB)
          | Peak values for overall tracked memory usage:
          |   Minimum:       73.976 MB (on task 103 after allocating wave)
          |   Maximum:       74.741 MB (on task   4 after allocating wave)
          |   Average:       74.612 MB
          | Largest tracked array allocation:
          |   Minimum:       11.883 MB (dm_dump on task   0)
          |   Maximum:       11.883 MB (dm_dump on task   0)
          |   Average:       11.883 MB
          Note:  These values currently only include a subset of arrays which are explicitly tracked.
          The "true" memory usage will be greater.

          Have a nice day.
------------------------------------------------------------
